+----------------------------+
| Elk version 1.0.17 started |
+----------------------------+
 
Date (YYYY-MM-DD) : 2019-05-10
Time (hh:mm:ss)   : 00:26:20
 
All units are atomic (Hartree, Bohr, etc.)
 
+-------------------------------------------------+
| Ground-state run starting from atomic densities |
+-------------------------------------------------+
 
Lattice vectors :
   0.000000000       3.940078686       3.940078686    
   3.940078686       0.000000000       3.940078686    
   3.940078686       3.940078686       0.000000000    
 
Reciprocal lattice vectors :
 -0.7973426177      0.7973426177      0.7973426177    
  0.7973426177     -0.7973426177      0.7973426177    
  0.7973426177      0.7973426177     -0.7973426177    
 
Unit cell volume      :    122.3332971    
Brillouin zone volume :    2.027659021    
 
Species :    1 (Ni)
 parameters loaded from : Ni.in
 name : nickel
 nuclear charge    :   -28.00000000    
 electronic charge :    28.00000000    
 atomic mass :    106991.5230    
 muffin-tin radius :    2.000000000    
 effective infinity radius :    32.31810000    
 number of radial points in muffin-tin :    749
 number of radial points to effective infinity :    883
 atomic positions (lattice), magnetic fields (Cartesian) :
   1 :   0.00000000  0.00000000  0.00000000    0.00000000  0.00000000  0.00000000
 
Species :    2 (O)
 parameters loaded from : O.in
 name : oxygen
 nuclear charge    :   -8.000000000    
 electronic charge :    8.000000000    
 atomic mass :    29165.12202    
 muffin-tin radius :    1.600000000    
 effective infinity radius :    23.49150000    
 number of radial points in muffin-tin :    449
 number of radial points to effective infinity :    531
 atomic positions (lattice), magnetic fields (Cartesian) :
   1 :   0.50000000  0.50000000  0.50000000    0.00000000  0.00000000  0.00000000
 
Total number of atoms per unit cell :    2
 
Spin treatment :
 spin-unpolarised
 
Number of Bravais lattice symmetries :   48
Number of crystal symmetries         :   48
 
k-point grid :      4     4     4
k-point offset :    0.000000000       0.000000000       0.000000000    
k-point set is reduced with full crystal symmetry group
Total number of k-points :        8
 
Muffin-tin radius times maximum |G+k| :    7.000000000    
 using average radius
Maximum |G+k| for APW functions       :    4.375000000    
Maximum (1/2)|G+k|^2                  :    9.570312500    
Maximum |G| for potential and density :    20.00000000    
Polynomial order for pseudocharge density :    9
Radial integration step length :    4
 
G-vector grid sizes       :     36    36    36
Total number of G-vectors :    16529
Total number of points    :    46656
FFT grid density          :       381.38 [1/a.u.^3]
 
Maximum angular momentum used for
 APW functions                      :    8
 potential and density              :    8
 
Total nuclear charge    :   -36.00000000    
Total core charge       :    14.00000000    
Total valence charge    :    22.00000000    
Total excess charge     :    0.000000000    
Total electronic charge :    36.00000000    
 
Effective Wigner radius, r_s :   0.9326482012    
 
Number of empty states         :   10
Total number of valence states :   21
 
Total number of local-orbitals :   29
 
Exchange-correlation functional :     20     0     0
 Perdew-Burke-Ernzerhof, Phys. Rev. Lett. 77, 3865 (1996)
 Generalised gradient approximation (GGA)
 
Smearing type :    0
 Gaussian
Automatic determination of smearing width
 
Mixing type :    1
 Adaptive linear mixing
 
initialization time :       2.02 sec.
 
Density and potential initialised from atomic data
 done in :       9.88 sec.
 
Species :    1 (Ni)
  n : 1   l : 0   k : 1   energy :   -301.0896631    
  n : 2   l : 0   k : 1   energy :   -35.99433926    
  n : 2   l : 1   k : 1   energy :   -31.43871295    
  n : 2   l : 1   k : 2   energy :   -30.79773787    
  n : 3   l : 0   k : 1   energy :   -4.058918521    
  n : 3   l : 1   k : 1   energy :   -2.672056777    
  n : 3   l : 1   k : 2   energy :   -2.590449408    
  n : 3   l : 2   k : 2   energy :  -0.3405109173    
  n : 3   l : 2   k : 3   energy :  -0.3316771827    
  n : 4   l : 0   k : 1   energy :  -0.2152731531    
 
Species :    2 (O)
  n : 1   l : 0   k : 1   energy :   -18.77293060    
  n : 2   l : 0   k : 1   energy :  -0.8727381850    
  n : 2   l : 1   k : 1   energy :  -0.3387244230    
  n : 2   l : 1   k : 2   energy :  -0.3373705034    
 
 
+------------------------------+
| Self-consistent loop started |
+------------------------------+
 
+-------------------------+
| Iteration number :    1 |
+-------------------------+
 
New smearing width :   0.1000000000E-01
 
Energies :
 Fermi                       :     0.889799370287E-01
 sum of eigenvalues          :     -3741.47985749    
 electron kinetic            :     -13877.7404748    
   core kinetic              :      200.983072227    
   valence kinetic           :     -14078.7235471    
 Coulomb                     :      1815.80935697    
 Coulomb potential           :      11255.8489496    
 nuclear-nuclear             :     -231.518672808    
 electron-nuclear            :     -7161.19289006    
 Hartree                     :      9208.52091984    
 Madelung                    :     -3812.11511784    
 xc potential                :     -1119.58833227    
 exchange                    :     -825.969948836    
 correlation                 :     -29.8121637832    
 total energy                :     -12917.7132305    
 
Density of states at Fermi energy :    56.18408668    
 (states/Hartree/unit cell)
Estimated band gap (eV) :   0.3163133507    
 from k-point      6 to k-point      5
Estimated direct band gap (eV) :   0.7389090510    
 at k-point      5
 
Charges :
 core                        :    14.00000000    
 core leakage                :   0.2230708824E-02
 valence                     :    22.00000000    
 interstitial                :    315.3319489    
 muffin-tins
  species :    1 (Ni)
   atom    1                 :   -194.3100673    
  species :    2 (O)
   atom    1                 :   -85.02188160    
 total in muffin-tins        :   -279.3319489    
 total charge                :    36.00000000    
 
Time (CPU seconds) :         3.44
 
iteration time (seconds)              :         1.95
  radial setup (linen, APW, radint)   :         0.00        0.00        0.00
  total for secular equation          :         0.00
  first-variational                   :         0.00
  setup                               :         0.00
        setup H (total, MT, IT)             :         0.00        0.00        0.00
        setup O (total, MT, IT)             :         0.00        0.00        0.00
      diagonalization                       :         0.00
    second-variational                      :         0.00
      setup (total, MT, IT)                 :         0.00        0.00        0.00
      diagonalization                       :         0.00
  total for charge and magnetization        :         0.72
    k-point summation (total, MT, IT)       :         0.00        0.00        0.00
    symmetrization                          :         0.00
  potential (total, XC, Ha)                 :         0.33        0.26        0.07
  density matrix setup                      :         0.00
 
+-------------------------+
| Iteration number :    2 |
+-------------------------+
 
New smearing width :   0.3990821577E-01
 
Energies :
 Fermi                       :     0.766798475508    
 sum of eigenvalues          :     -280.512462722    
 electron kinetic            :     -11013.4817249    
   core kinetic              :      863.246921804    
   valence kinetic           :     -11876.7286467    
 Coulomb                     :      5428.56547396    
 Coulomb potential           :      11442.2080933    
 nuclear-nuclear             :     -231.518672808    
 electron-nuclear            :     -122.039799805    
 Hartree                     :      5782.12394657    
 Madelung                    :     -292.538572710    
 xc potential                :     -709.238831179    
 exchange                    :     -530.288924476    
 correlation                 :     -20.3201134320    
 total energy                :     -6135.52528883    
 
Density of states at Fermi energy :    77.11682697    
 (states/Hartree/unit cell)
Estimated band gap (eV) :    45.50984429    
 from k-point      4 to k-point      1
Estimated direct band gap (eV) :    45.55369776    
 at k-point      1
 
Charges :
 core                        :    14.00000000    
 core leakage                :    3.428954899    
 valence                     :    22.00000000    
 interstitial                :    324.8502970    
 muffin-tins
  species :    1 (Ni)
   atom    1                 :   -214.5387048    
  species :    2 (O)
   atom    1                 :   -74.31159221    
 total in muffin-tins        :   -288.8502970    
 total charge                :    36.00000000    
 
Wrote STATE.OUT
 
RMS change in effective potential (target) :    59.37028943     (  0.1000000000E-05)
Absolute change in total energy (target)   :    6782.187942     (  0.1000000000E-03)
 
Time (CPU seconds) :         4.44
 
iteration time (seconds)              :         2.08
  radial setup (linen, APW, radint)   :         0.00        0.00        0.00
  total for secular equation          :         0.00
  first-variational                   :         0.00
  setup                               :         0.00
        setup H (total, MT, IT)             :         0.00        0.00        0.00
        setup O (total, MT, IT)             :         0.00        0.00        0.00
      diagonalization                       :         0.00
    second-variational                      :         0.00
      setup (total, MT, IT)                 :         0.00        0.00        0.00
      diagonalization                       :         0.00
  total for charge and magnetization        :         0.77
    k-point summation (total, MT, IT)       :         0.00        0.00        0.00
    symmetrization                          :         0.00
  potential (total, XC, Ha)                 :         0.32        0.25        0.07
  density matrix setup                      :         0.00
 
+-------------------------+
| Iteration number :    3 |
+-------------------------+
 
New smearing width :   0.3571734963E-02
 
Energies :
 Fermi                       :     0.756238319219    
 sum of eigenvalues          :     -308.389151042    
 electron kinetic            :     -11084.2229984    
   core kinetic              :      886.521136516    
   valence kinetic           :     -11970.7441349    
 Coulomb                     :      5394.62231191    
 Coulomb potential           :      11531.5627280    
 nuclear-nuclear             :     -231.518672808    
 electron-nuclear            :     -279.280758578    
 Hartree                     :      5905.42174330    
 Madelung                    :     -371.159052097    
 xc potential                :     -755.728880680    
 exchange                    :     -564.394082732    
 correlation                 :     -21.3632954464    
 total energy                :     -6275.35806465    
 
Density of states at Fermi energy :    688.8868314    
 (states/Hartree/unit cell)
Estimated band gap (eV) :   0.1061020635E-01
 from k-point      4 to k-point      1
Estimated direct band gap (eV) :   0.1516859664E-01
 at k-point      2
 
Charges :
 core                        :    14.00000000    
 core leakage                :    3.275123200    
 valence                     :    22.00000000    
 interstitial                :    338.4883550    
 muffin-tins
  species :    1 (Ni)
   atom    1                 :   -213.5826678    
  species :    2 (O)
   atom    1                 :   -88.90568716    
 total in muffin-tins        :   -302.4883550    
 total charge                :    36.00000000    
 
RMS change in effective potential (target) :    57.35713381     (  0.1000000000E-05)
Absolute change in total energy (target)   :    139.8327758     (  0.1000000000E-03)
 
Time (CPU seconds) :         5.42
 
iteration time (seconds)              :         1.97
  radial setup (linen, APW, radint)   :         0.00        0.00        0.00
  total for secular equation          :         0.00
  first-variational                   :         0.00
  setup                               :         0.00
        setup H (total, MT, IT)             :         0.00        0.00        0.00
        setup O (total, MT, IT)             :         0.00        0.00        0.00
      diagonalization                       :         0.00
    second-variational                      :         0.00
      setup (total, MT, IT)                 :         0.00        0.00        0.00
      diagonalization                       :         0.00
  total for charge and magnetization        :         0.74
    k-point summation (total, MT, IT)       :         0.00        0.00        0.00
    symmetrization                          :         0.00
  potential (total, XC, Ha)                 :         0.31        0.24        0.07
  density matrix setup                      :         0.00
 
+-------------------------+
| Iteration number :    4 |
+-------------------------+
 
New smearing width :   0.2063762174E-02
 
Energies :
 Fermi                       :     0.756495627472    
 sum of eigenvalues          :     -361.067511775    
 electron kinetic            :     -10203.1820163    
   core kinetic              :      899.814504421    
   valence kinetic           :     -11102.9965208    
 Coulomb                     :      4768.94419027    
 Coulomb potential           :      10649.5396352    
 nuclear-nuclear             :     -231.518672808    
 electron-nuclear            :     -648.613909033    
 Hartree                     :      5649.07677211    
 Madelung                    :     -555.825627324    
 xc potential                :     -807.425130610    
 exchange                    :     -601.989476456    
 correlation                 :     -22.5190033620    
 total energy                :     -6058.74630590    
 
Density of states at Fermi energy :    997.1160539    
 (states/Hartree/unit cell)
Estimated band gap (eV) :   0.1049369020E-01
 from k-point      4 to k-point      1
Estimated direct band gap (eV) :   0.1506962272E-01
 at k-point      2
 
Charges :
 core                        :    14.00000000    
 core leakage                :    2.889693361    
 valence                     :    22.00000000    
 interstitial                :    344.4390800    
 muffin-tins
  species :    1 (Ni)
   atom    1                 :   -213.0895404    
  species :    2 (O)
   atom    1                 :   -95.34953966    
 total in muffin-tins        :   -308.4390800    
 total charge                :    36.00000000    
 
Wrote STATE.OUT
 
RMS change in effective potential (target) :    50.93504736     (  0.1000000000E-05)
Absolute change in total energy (target)   :    216.6117588     (  0.1000000000E-03)
 
Time (CPU seconds) :         6.40
 
iteration time (seconds)              :         1.99
  radial setup (linen, APW, radint)   :         0.00        0.00        0.00
  total for secular equation          :         0.00
  first-variational                   :         0.00
  setup                               :         0.00
        setup H (total, MT, IT)             :         0.00        0.00        0.00
        setup O (total, MT, IT)             :         0.00        0.00        0.00
      diagonalization                       :         0.00
    second-variational                      :         0.00
      setup (total, MT, IT)                 :         0.00        0.00        0.00
      diagonalization                       :         0.00
  total for charge and magnetization        :         0.75
    k-point summation (total, MT, IT)       :         0.00        0.00        0.00
    symmetrization                          :         0.00
  potential (total, XC, Ha)                 :         0.31        0.24        0.07
  density matrix setup                      :         0.00
 
+-------------------------+
| Iteration number :    5 |
+-------------------------+
 
New smearing width :   0.1968003543E-02
 
Energies :
 Fermi                       :     0.757167174476    
 sum of eigenvalues          :     -433.482974785    
 electron kinetic            :     -8470.57807861    
   core kinetic              :      933.497744286    
   valence kinetic           :     -9404.07582290    
 Coulomb                     :      3592.11820665    
 Coulomb potential           :      8841.83836244    
 nuclear-nuclear             :     -231.518672808    
 electron-nuclear            :     -1194.56460352    
 Hartree                     :      5018.20148298    
 Madelung                    :     -828.800974567    
 xc potential                :     -804.743258612    
 exchange                    :     -599.182885546    
 correlation                 :     -22.5091874376    
 total energy                :     -5500.15194494    
 
Density of states at Fermi energy :    1035.259373    
 (states/Hartree/unit cell)
Estimated band gap (eV) :   0.1020028368E-01
 from k-point      4 to k-point      1
Estimated direct band gap (eV) :   0.1473917674E-01
 at k-point      2
 
Charges :
 core                        :    14.00000000    
 core leakage                :   0.9422395149    
 valence                     :    22.00000000    
 interstitial                :    343.5283338    
 muffin-tins
  species :    1 (Ni)
   atom    1                 :   -211.7456179    
  species :    2 (O)
   atom    1                 :   -95.78271595    
 total in muffin-tins        :   -307.5283338    
 total charge                :    36.00000000    
 
RMS change in effective potential (target) :    37.92327379     (  0.1000000000E-05)
Absolute change in total energy (target)   :    558.5943610     (  0.1000000000E-03)
 
Time (CPU seconds) :         7.38
 
iteration time (seconds)              :         1.94
  radial setup (linen, APW, radint)   :         0.00        0.00        0.00
  total for secular equation          :         0.00
  first-variational                   :         0.00
  setup                               :         0.00
        setup H (total, MT, IT)             :         0.00        0.00        0.00
        setup O (total, MT, IT)             :         0.00        0.00        0.00
      diagonalization                       :         0.00
    second-variational                      :         0.00
      setup (total, MT, IT)                 :         0.00        0.00        0.00
      diagonalization                       :         0.00
  total for charge and magnetization        :         0.75
    k-point summation (total, MT, IT)       :         0.00        0.00        0.00
    symmetrization                          :         0.00
  potential (total, XC, Ha)                 :         0.31        0.24        0.07
  density matrix setup                      :         0.00
 
+-------------------------+
| Iteration number :    6 |
+-------------------------+
 
New smearing width :   0.1941281227E-02
 
Energies :
 Fermi                       :     0.757885383496    
 sum of eigenvalues          :     -602.252316190    
 electron kinetic            :     -6789.71287185    
   core kinetic              :      1497.38760855    
   valence kinetic           :     -8287.10048040    
 Coulomb                     :      2067.47244326    
 Coulomb potential           :      7032.92523142    
 nuclear-nuclear             :     -231.518672808    
 electron-nuclear            :     -2434.94299928    
 Hartree                     :      4733.93411535    
 Madelung                    :     -1448.99017245    
 xc potential                :     -845.464675767    
 exchange                    :     -629.699062346    
 correlation                 :     -23.4932095557    
 total energy                :     -5375.43270049    
 
Density of states at Fermi energy :    1049.973538    
 (states/Hartree/unit cell)
Estimated band gap (eV) :   0.9838716996E-02
 from k-point      4 to k-point      1
Estimated direct band gap (eV) :   0.1432916100E-01
 at k-point      2
 
Charges :
 core                        :    14.00000000    
 core leakage                :   0.2585739663    
 valence                     :    22.00000000    
 interstitial                :    344.3382171    
 muffin-tins
  species :    1 (Ni)
   atom    1                 :   -213.2233990    
  species :    2 (O)
   atom    1                 :   -95.11481807    
 total in muffin-tins        :   -308.3382171    
 total charge                :    36.00000000    
 
Wrote STATE.OUT
 
RMS change in effective potential (target) :    19.34364448     (  0.1000000000E-05)
Absolute change in total energy (target)   :    124.7192445     (  0.1000000000E-03)
 
Time (CPU seconds) :         8.36
 
iteration time (seconds)              :         1.93
  radial setup (linen, APW, radint)   :         0.00        0.00        0.00
  total for secular equation          :         0.00
  first-variational                   :         0.00
  setup                               :         0.00
        setup H (total, MT, IT)             :         0.00        0.00        0.00
        setup O (total, MT, IT)             :         0.00        0.00        0.00
      diagonalization                       :         0.00
    second-variational                      :         0.00
      setup (total, MT, IT)                 :         0.00        0.00        0.00
      diagonalization                       :         0.00
  total for charge and magnetization        :         0.74
    k-point summation (total, MT, IT)       :         0.00        0.00        0.00
    symmetrization                          :         0.00
  potential (total, XC, Ha)                 :         0.31        0.25        0.07
  density matrix setup                      :         0.00
 
+-------------------------+
| Iteration number :    7 |
+-------------------------+
 
New smearing width :   0.1915831715E-02
 
Energies :
 Fermi                       :     0.758646280713    
 sum of eigenvalues          :     -781.083500508    
 electron kinetic            :     -6583.14616567    
   core kinetic              :      1361.46831936    
   valence kinetic           :     -7944.61448503    
 Coulomb                     :      970.358871003    
 Coulomb potential           :      6712.98188001    
 nuclear-nuclear             :     -231.518672808    
 electron-nuclear            :     -4309.22679239    
 Hartree                     :      5511.10433620    
 Madelung                    :     -2386.13206900    
 xc potential                :     -910.919214853    
 exchange                    :     -675.349970325    
 correlation                 :     -25.8116886366    
 total energy                :     -6313.94895363    
 
Density of states at Fermi energy :    1064.679575    
 (states/Hartree/unit cell)
Estimated band gap (eV) :   0.9495361980E-02
 from k-point      4 to k-point      1
Estimated direct band gap (eV) :   0.1396496430E-01
 at k-point      2
 
Charges :
 core                        :    14.00000000    
 core leakage                :   0.7348381931E-01
 valence                     :    22.00000000    
 interstitial                :    344.2845467    
 muffin-tins
  species :    1 (Ni)
   atom    1                 :   -212.9823026    
  species :    2 (O)
   atom    1                 :   -95.30224416    
 total in muffin-tins        :   -308.2845467    
 total charge                :    36.00000000    
 
RMS change in effective potential (target) :    6.129956478     (  0.1000000000E-05)
Absolute change in total energy (target)   :    938.5162531     (  0.1000000000E-03)
 
Time (CPU seconds) :         9.34
 
iteration time (seconds)              :         1.93
  radial setup (linen, APW, radint)   :         0.00        0.00        0.00
  total for secular equation          :         0.00
  first-variational                   :         0.00
  setup                               :         0.00
        setup H (total, MT, IT)             :         0.00        0.00        0.00
        setup O (total, MT, IT)             :         0.00        0.00        0.00
      diagonalization                       :         0.00
    second-variational                      :         0.00
      setup (total, MT, IT)                 :         0.00        0.00        0.00
      diagonalization                       :         0.00
  total for charge and magnetization        :         0.75
    k-point summation (total, MT, IT)       :         0.00        0.00        0.00
    symmetrization                          :         0.00
  potential (total, XC, Ha)                 :         0.31        0.25        0.07
  density matrix setup                      :         0.00
 
+-------------------------+
| Iteration number :    8 |
+-------------------------+
 
New smearing width :   0.1917594414E-02
 
Energies :
 Fermi                       :     0.759328786201    
 sum of eigenvalues          :     -777.923217532    
 electron kinetic            :     -6428.44509754    
   core kinetic              :      1368.17392990    
   valence kinetic           :     -7796.61902744    
 Coulomb                     :      991.149986863    
 Coulomb potential           :      6542.03466957    
 nuclear-nuclear             :     -231.518672808    
 electron-nuclear            :     -4096.69735023    
 Hartree                     :      5319.36600990    
 Madelung                    :     -2279.86734792    
 xc potential                :     -891.512789563    
 exchange                    :     -660.989621942    
 correlation                 :     -25.4603693703    
 total energy                :     -6123.74510199    
 
Density of states at Fermi energy :    1068.630818    
 (states/Hartree/unit cell)
Estimated band gap (eV) :   0.9142809053E-02
 from k-point      4 to k-point      1
Estimated direct band gap (eV) :   0.1360102315E-01
 at k-point      2
 
Charges :
 core                        :    14.00000000    
 core leakage                :   0.1657036928E-01
 valence                     :    22.00000000    
 interstitial                :    344.6967571    
 muffin-tins
  species :    1 (Ni)
   atom    1                 :   -212.6682134    
  species :    2 (O)
   atom    1                 :   -96.02854366    
 total in muffin-tins        :   -308.6967571    
 total charge                :    36.00000000    
 
Wrote STATE.OUT
 
RMS change in effective potential (target) :    7.886831831     (  0.1000000000E-05)
Absolute change in total energy (target)   :    190.2038516     (  0.1000000000E-03)
 
Time (CPU seconds) :        10.33
 
iteration time (seconds)              :         1.93
  radial setup (linen, APW, radint)   :         0.00        0.00        0.00
  total for secular equation          :         0.00
  first-variational                   :         0.00
  setup                               :         0.00
        setup H (total, MT, IT)             :         0.00        0.00        0.00
        setup O (total, MT, IT)             :         0.00        0.00        0.00
      diagonalization                       :         0.00
    second-variational                      :         0.00
      setup (total, MT, IT)                 :         0.00        0.00        0.00
      diagonalization                       :         0.00
  total for charge and magnetization        :         0.74
    k-point summation (total, MT, IT)       :         0.00        0.00        0.00
    symmetrization                          :         0.00
  potential (total, XC, Ha)                 :         0.31        0.25        0.07
  density matrix setup                      :         0.00
 
+-------------------------+
| Iteration number :    9 |
+-------------------------+
 
New smearing width :   0.1929102200E-02
 
Energies :
 Fermi                       :     0.759895341547    
 sum of eigenvalues          :     -776.129322815    
 electron kinetic            :     -6291.51746954    
   core kinetic              :      1385.67282113    
   valence kinetic           :     -7677.19029067    
 Coulomb                     :      1051.61336333    
 Coulomb potential           :      6379.86771290    
 nuclear-nuclear             :     -231.518672808    
 electron-nuclear            :     -3813.60364064    
 Hartree                     :      5096.73567677    
 Madelung                    :     -2138.32049313    
 xc potential                :     -864.479566178    
 exchange                    :     -640.913387314    
 correlation                 :     -24.8774263178    
 total energy                :     -5905.69491985    
 
Density of states at Fermi energy :    1068.218697    
 (states/Hartree/unit cell)
Estimated band gap (eV) :   0.8813873581E-02
 from k-point      4 to k-point      1
Estimated direct band gap (eV) :   0.1324829546E-01
 at k-point      2
 
Charges :
 core                        :    14.00000000    
 core leakage                :   0.4321844034E-02
 valence                     :    22.00000000    
 interstitial                :    344.9387818    
 muffin-tins
  species :    1 (Ni)
   atom    1                 :   -212.4272405    
  species :    2 (O)
   atom    1                 :   -96.51154127    
 total in muffin-tins        :   -308.9387818    
 total charge                :    36.00000000    
 
RMS change in effective potential (target) :    13.97439586     (  0.1000000000E-05)
Absolute change in total energy (target)   :    218.0501821     (  0.1000000000E-03)
 
Time (CPU seconds) :        11.31
 
iteration time (seconds)              :         1.92
  radial setup (linen, APW, radint)   :         0.00        0.00        0.00
  total for secular equation          :         0.00
  first-variational                   :         0.00
  setup                               :         0.00
        setup H (total, MT, IT)             :         0.00        0.00        0.00
        setup O (total, MT, IT)             :         0.00        0.00        0.00
      diagonalization                       :         0.00
    second-variational                      :         0.00
      setup (total, MT, IT)                 :         0.00        0.00        0.00
      diagonalization                       :         0.00
  total for charge and magnetization        :         0.74
    k-point summation (total, MT, IT)       :         0.00        0.00        0.00
    symmetrization                          :         0.00
  potential (total, XC, Ha)                 :         0.32        0.25        0.07
  density matrix setup                      :         0.00
 
+-------------------------+
| Iteration number :   10 |
+-------------------------+
 
New smearing width :   0.1948047327E-02
 
Energies :
 Fermi                       :     0.760321721164    
 sum of eigenvalues          :     -783.771924134    
 electron kinetic            :     -6269.33142308    
   core kinetic              :      1400.41132775    
   valence kinetic           :     -7669.74275083    
 Coulomb                     :      1061.28688752    
 Coulomb potential           :      6336.90930769    
 nuclear-nuclear             :     -231.518672808    
 electron-nuclear            :     -3751.29818705    
 Hartree                     :      5044.10374737    
 Madelung                    :     -2107.16776633    
 xc potential                :     -851.349808752    
 exchange                    :     -630.821920035    
 correlation                 :     -24.5635110645    
 total energy                :     -5863.42996666    
 
Density of states at Fermi energy :    1064.137796    
 (states/Hartree/unit cell)
Estimated band gap (eV) :   0.8543817460E-02
 from k-point      4 to k-point      1
Estimated direct band gap (eV) :   0.1294890616E-01
 at k-point      2
 
Charges :
 core                        :    14.00000000    
 core leakage                :   0.3149970766E-02
 valence                     :    22.00000000    
 interstitial                :    344.8657245    
 muffin-tins
  species :    1 (Ni)
   atom    1                 :   -212.3191556    
  species :    2 (O)
   atom    1                 :   -96.54656891    
 total in muffin-tins        :   -308.8657245    
 total charge                :    36.00000000    
 
Wrote STATE.OUT
 
RMS change in effective potential (target) :    16.26319465     (  0.1000000000E-05)
Absolute change in total energy (target)   :    42.26495319     (  0.1000000000E-03)
 
Time (CPU seconds) :        12.29
 
iteration time (seconds)              :         1.93
  radial setup (linen, APW, radint)   :         0.00        0.00        0.00
  total for secular equation          :         0.00
  first-variational                   :         0.00
  setup                               :         0.00
        setup H (total, MT, IT)             :         0.00        0.00        0.00
        setup O (total, MT, IT)             :         0.00        0.00        0.00
      diagonalization                       :         0.00
    second-variational                      :         0.00
      setup (total, MT, IT)                 :         0.00        0.00        0.00
      diagonalization                       :         0.00
  total for charge and magnetization        :         0.74
    k-point summation (total, MT, IT)       :         0.00        0.00        0.00
    symmetrization                          :         0.00
  potential (total, XC, Ha)                 :         0.31        0.25        0.07
  density matrix setup                      :         0.00
 
+-------------------------+
| Iteration number :   11 |
+-------------------------+
 
New smearing width :   0.1971121081E-02
 
Energies :
 Fermi                       :     0.760601750927    
 sum of eigenvalues          :     -792.761697978    
 electron kinetic            :     -6200.01857993    
   core kinetic              :      1403.27518377    
   valence kinetic           :     -7603.29376370    
 Coulomb                     :      947.208843770    
 Coulomb potential           :      6258.43114406    
 nuclear-nuclear             :     -231.518672808    
 electron-nuclear            :     -3900.97611091    
 Hartree                     :      5079.70362749    
 Madelung                    :     -2182.00672826    
 xc potential                :     -851.174262114    
 exchange                    :     -630.722178840    
 correlation                 :     -24.3539235528    
 total energy                :     -5907.88583855    
 
Density of states at Fermi energy :    1057.556262    
 (states/Hartree/unit cell)
Estimated band gap (eV) :   0.8363368296E-02
 from k-point      4 to k-point      1
Estimated direct band gap (eV) :   0.1274730909E-01
 at k-point      2
 
Charges :
 core                        :    14.00000000    
 core leakage                :   0.3293319492E-02
 valence                     :    22.00000000    
 interstitial                :    344.4868264    
 muffin-tins
  species :    1 (Ni)
   atom    1                 :   -212.3632344    
  species :    2 (O)
   atom    1                 :   -96.12359204    
 total in muffin-tins        :   -308.4868264    
 total charge                :    36.00000000    
 
RMS change in effective potential (target) :    3.656887551     (  0.1000000000E-05)
Absolute change in total energy (target)   :    44.45587189     (  0.1000000000E-03)
 
Time (CPU seconds) :        13.28
 
iteration time (seconds)              :         1.93
  radial setup (linen, APW, radint)   :         0.00        0.00        0.00
  total for secular equation          :         0.00
  first-variational                   :         0.00
  setup                               :         0.00
        setup H (total, MT, IT)             :         0.00        0.00        0.00
        setup O (total, MT, IT)             :         0.00        0.00        0.00
      diagonalization                       :         0.00
    second-variational                      :         0.00
      setup (total, MT, IT)                 :         0.00        0.00        0.00
      diagonalization                       :         0.00
  total for charge and magnetization        :         0.75
    k-point summation (total, MT, IT)       :         0.00        0.00        0.00
    symmetrization                          :         0.00
  potential (total, XC, Ha)                 :         0.32        0.25        0.07
  density matrix setup                      :         0.00
 
+-------------------------+
| Iteration number :   12 |
+-------------------------+
 
New smearing width :   0.1994702979E-02
 
Energies :
 Fermi                       :     0.760747012711    
 sum of eigenvalues          :     -793.747978076    
 electron kinetic            :     -6161.55309295    
   core kinetic              :      1401.13540813    
   valence kinetic           :     -7562.68850108    
 Coulomb                     :      905.602907694    
 Coulomb potential           :      6213.96082868    
 nuclear-nuclear             :     -231.518672808    
 electron-nuclear            :     -3939.71766768    
 Hartree                     :      5076.83924818    
 Madelung                    :     -2201.37750665    
 xc potential                :     -846.155713815    
 exchange                    :     -626.788926330    
 correlation                 :     -24.1285758779    
 total energy                :     -5906.86768746    
 
Density of states at Fermi energy :    1049.828172    
 (states/Hartree/unit cell)
Estimated band gap (eV) :   0.8293150216E-02
 from k-point      4 to k-point      1
Estimated direct band gap (eV) :   0.1267554598E-01
 at k-point      2
 
Charges :
 core                        :    14.00000000    
 core leakage                :   0.3505240813E-02
 valence                     :    22.00000000    
 interstitial                :    344.3535786    
 muffin-tins
  species :    1 (Ni)
   atom    1                 :   -212.3272495    
  species :    2 (O)
   atom    1                 :   -96.02632911    
 total in muffin-tins        :   -308.3535786    
 total charge                :    36.00000000    
 
Wrote STATE.OUT
 
RMS change in effective potential (target) :    3.840511223     (  0.1000000000E-05)
Absolute change in total energy (target)   :    1.018151090     (  0.1000000000E-03)
 
Time (CPU seconds) :        14.27
 
iteration time (seconds)              :         1.94
  radial setup (linen, APW, radint)   :         0.00        0.00        0.00
  total for secular equation          :         0.00
  first-variational                   :         0.00
  setup                               :         0.00
        setup H (total, MT, IT)             :         0.00        0.00        0.00
        setup O (total, MT, IT)             :         0.00        0.00        0.00
      diagonalization                       :         0.00
    second-variational                      :         0.00
      setup (total, MT, IT)                 :         0.00        0.00        0.00
      diagonalization                       :         0.00
  total for charge and magnetization        :         0.75
    k-point summation (total, MT, IT)       :         0.00        0.00        0.00
    symmetrization                          :         0.00
  potential (total, XC, Ha)                 :         0.31        0.24        0.07
  density matrix setup                      :         0.00
 
+-------------------------+
| Iteration number :   13 |
+-------------------------+
 
New smearing width :   0.2008192564E-02
 
Energies :
 Fermi                       :     0.760815776828    
 sum of eigenvalues          :     -793.134467856    
 electron kinetic            :     -6129.73593673    
   core kinetic              :      1398.56010195    
   valence kinetic           :     -7528.29603867    
 Coulomb                     :      881.011872877    
 Coulomb potential           :      6178.59399302    
 nuclear-nuclear             :     -231.518672808    
 electron-nuclear            :     -3953.53290165    
 Hartree                     :      5066.06344734    
 Madelung                    :     -2208.28512363    
 xc potential                :     -841.992524153    
 exchange                    :     -623.652398640    
 correlation                 :     -23.9522393325    
 total energy                :     -5896.32870182    
 
Density of states at Fermi energy :    1045.382109    
 (states/Hartree/unit cell)
Estimated band gap (eV) :   0.8266369488E-02
 from k-point      4 to k-point      1
Estimated direct band gap (eV) :   0.1264914518E-01
 at k-point      2
 
Charges :
 core                        :    14.00000000    
 core leakage                :   0.3708129449E-02
 valence                     :    22.00000000    
 interstitial                :    344.2644817    
 muffin-tins
  species :    1 (Ni)
   atom    1                 :   -212.3179383    
  species :    2 (O)
   atom    1                 :   -95.94654340    
 total in muffin-tins        :   -308.2644817    
 total charge                :    36.00000000    
 
RMS change in effective potential (target) :    3.342456433     (  0.1000000000E-05)
Absolute change in total energy (target)   :    10.53898564     (  0.1000000000E-03)
 
Time (CPU seconds) :        15.26
 
iteration time (seconds)              :         1.94
  radial setup (linen, APW, radint)   :         0.00        0.00        0.00
  total for secular equation          :         0.00
  first-variational                   :         0.00
  setup                               :         0.00
        setup H (total, MT, IT)             :         0.00        0.00        0.00
        setup O (total, MT, IT)             :         0.00        0.00        0.00
      diagonalization                       :         0.00
    second-variational                      :         0.00
      setup (total, MT, IT)                 :         0.00        0.00        0.00
      diagonalization                       :         0.00
  total for charge and magnetization        :         0.75
    k-point summation (total, MT, IT)       :         0.00        0.00        0.00
    symmetrization                          :         0.00
  potential (total, XC, Ha)                 :         0.32        0.25        0.07
  density matrix setup                      :         0.00
 
+-------------------------+
| Iteration number :   14 |
+-------------------------+
 
New smearing width :   0.2015961451E-02
 
Energies :
 Fermi                       :     0.760841442715    
 sum of eigenvalues          :     -791.775586035    
 electron kinetic            :     -6110.88009644    
   core kinetic              :      1394.62424017    
   valence kinetic           :     -7505.50433661    
 Coulomb                     :      859.144285780    
 Coulomb potential           :      6160.17642132    
 nuclear-nuclear             :     -231.518672808    
 electron-nuclear            :     -3978.85050415    
 Hartree                     :      5069.51346273    
 Madelung                    :     -2220.94392488    
 xc potential                :     -841.071910915    
 exchange                    :     -623.020519787    
 correlation                 :     -23.8769766679    
 total energy                :     -5898.63330712    
 
Density of states at Fermi energy :    1042.735343    
 (states/Hartree/unit cell)
Estimated band gap (eV) :   0.8264283396E-02
 from k-point      4 to k-point      1
Estimated direct band gap (eV) :   0.1264845309E-01
 at k-point      2
 
Charges :
 core                        :    14.00000000    
 core leakage                :   0.3784071774E-02
 valence                     :    22.00000000    
 interstitial                :    344.1727059    
 muffin-tins
  species :    1 (Ni)
   atom    1                 :   -212.3334634    
  species :    2 (O)
   atom    1                 :   -95.83924255    
 total in muffin-tins        :   -308.1727059    
 total charge                :    36.00000000    
 
Wrote STATE.OUT
 
RMS change in effective potential (target) :    1.855287166     (  0.1000000000E-05)
Absolute change in total energy (target)   :    2.304605294     (  0.1000000000E-03)
 
Time (CPU seconds) :        16.25
 
iteration time (seconds)              :         1.94
  radial setup (linen, APW, radint)   :         0.00        0.00        0.00
  total for secular equation          :         0.00
  first-variational                   :         0.00
  setup                               :         0.00
        setup H (total, MT, IT)             :         0.00        0.00        0.00
        setup O (total, MT, IT)             :         0.00        0.00        0.00
      diagonalization                       :         0.00
    second-variational                      :         0.00
      setup (total, MT, IT)                 :         0.00        0.00        0.00
      diagonalization                       :         0.00
  total for charge and magnetization        :         0.75
    k-point summation (total, MT, IT)       :         0.00        0.00        0.00
    symmetrization                          :         0.00
  potential (total, XC, Ha)                 :         0.32        0.25        0.07
  density matrix setup                      :         0.00
 
+-------------------------+
| Iteration number :   15 |
+-------------------------+
 
New smearing width :   0.2019951676E-02
 
Energies :
 Fermi                       :     0.760845905174    
 sum of eigenvalues          :     -789.264675278    
 electron kinetic            :     -6087.93664329    
   core kinetic              :      1391.64103182    
   valence kinetic           :     -7479.57767511    
 Coulomb                     :      849.170017913    
 Coulomb potential           :      6138.48956833    
 nuclear-nuclear             :     -231.518672808    
 electron-nuclear            :     -3977.11218689    
 Hartree                     :      5057.80087761    
 Madelung                    :     -2220.07476625    
 xc potential                :     -839.817600321    
 exchange                    :     -622.189088824    
 correlation                 :     -23.7984363568    
 total energy                :     -5884.75415056    
 
Density of states at Fermi energy :    1041.283590    
 (states/Hartree/unit cell)
Estimated band gap (eV) :   0.8278102401E-02
 from k-point      4 to k-point      1
Estimated direct band gap (eV) :   0.1266700312E-01
 at k-point      2
 
Charges :
 core                        :    14.00000000    
 core leakage                :   0.3893543884E-02
 valence                     :    22.00000000    
 interstitial                :    344.0932151    
 muffin-tins
  species :    1 (Ni)
   atom    1                 :   -212.3633872    
  species :    2 (O)
   atom    1                 :   -95.72982781    
 total in muffin-tins        :   -308.0932151    
 total charge                :    36.00000000    
 
RMS change in effective potential (target) :    1.997086022     (  0.1000000000E-05)
Absolute change in total energy (target)   :    13.87915656     (  0.1000000000E-03)
 
Time (CPU seconds) :        17.25
 
iteration time (seconds)              :         1.95
  radial setup (linen, APW, radint)   :         0.00        0.00        0.00
  total for secular equation          :         0.00
  first-variational                   :         0.00
  setup                               :         0.00
        setup H (total, MT, IT)             :         0.00        0.00        0.00
        setup O (total, MT, IT)             :         0.00        0.00        0.00
      diagonalization                       :         0.00
    second-variational                      :         0.00
      setup (total, MT, IT)                 :         0.00        0.00        0.00
      diagonalization                       :         0.00
  total for charge and magnetization        :         0.76
    k-point summation (total, MT, IT)       :         0.00        0.00        0.00
    symmetrization                          :         0.00
  potential (total, XC, Ha)                 :         0.32        0.25        0.07
  density matrix setup                      :         0.00
 
+-------------------------+
| Iteration number :   16 |
+-------------------------+
 
New smearing width :   0.2020477672E-02
 
Energies :
 Fermi                       :     0.760847165903    
 sum of eigenvalues          :     -787.479226250    
 electron kinetic            :     -6089.87091189    
   core kinetic              :      1386.77813801    
   valence kinetic           :     -7476.64904990    
 Coulomb                     :      845.206415989    
 Coulomb potential           :      6142.51564941    
 nuclear-nuclear             :     -231.518672808    
 electron-nuclear            :     -3989.06547182    
 Hartree                     :      5065.79056061    
 Madelung                    :     -2226.05140872    
 xc potential                :     -840.123963770    
 exchange                    :     -622.389406823    
 correlation                 :     -23.8037112708    
 total energy                :     -5890.85761399    
 
Density of states at Fermi energy :    1041.059484    
 (states/Hartree/unit cell)
Estimated band gap (eV) :   0.8292332762E-02
 from k-point      4 to k-point      1
Estimated direct band gap (eV) :   0.1268649157E-01
 at k-point      2
 
Charges :
 core                        :    14.00000000    
 core leakage                :   0.3866526656E-02
 valence                     :    22.00000000    
 interstitial                :    344.0849327    
 muffin-tins
  species :    1 (Ni)
   atom    1                 :   -212.3683075    
  species :    2 (O)
   atom    1                 :   -95.71662525    
 total in muffin-tins        :   -308.0849327    
 total charge                :    36.00000000    
 
Wrote STATE.OUT
 
RMS change in effective potential (target) :    1.678536991     (  0.1000000000E-05)
Absolute change in total energy (target)   :    6.103463436     (  0.1000000000E-03)
 
Time (CPU seconds) :        18.23
 
iteration time (seconds)              :         1.93
  radial setup (linen, APW, radint)   :         0.00        0.00        0.00
  total for secular equation          :         0.00
  first-variational                   :         0.00
  setup                               :         0.00
        setup H (total, MT, IT)             :         0.00        0.00        0.00
        setup O (total, MT, IT)             :         0.00        0.00        0.00
      diagonalization                       :         0.00
    second-variational                      :         0.00
      setup (total, MT, IT)                 :         0.00        0.00        0.00
      diagonalization                       :         0.00
  total for charge and magnetization        :         0.75
    k-point summation (total, MT, IT)       :         0.00        0.00        0.00
    symmetrization                          :         0.00
  potential (total, XC, Ha)                 :         0.32        0.25        0.07
  density matrix setup                      :         0.00
 
+-------------------------+
| Iteration number :   17 |
+-------------------------+
 
New smearing width :   0.2020872721E-02
 
Energies :
 Fermi                       :     0.760846213188    
 sum of eigenvalues          :     -784.652332433    
 electron kinetic            :     -6078.70990307    
   core kinetic              :      1383.99865433    
   valence kinetic           :     -7462.70855741    
 Coulomb                     :      840.887071359    
 Coulomb potential           :      6134.51378919    
 nuclear-nuclear             :     -231.518672808    
 electron-nuclear            :     -3989.70230086    
 Hartree                     :      5062.10804502    
 Madelung                    :     -2226.36982324    
 xc potential                :     -840.456218549    
 exchange                    :     -622.677777583    
 correlation                 :     -23.7873145501    
 total energy                :     -5884.28792385    
 
Density of states at Fermi energy :    1040.891257    
 (states/Hartree/unit cell)
Estimated band gap (eV) :   0.8299694070E-02
 from k-point      4 to k-point      1
Estimated direct band gap (eV) :   0.1269575315E-01
 at k-point      2
 
Charges :
 core                        :    14.00000000    
 core leakage                :   0.3911712437E-02
 valence                     :    22.00000000    
 interstitial                :    344.0306242    
 muffin-tins
  species :    1 (Ni)
   atom    1                 :   -212.3947294    
  species :    2 (O)
   atom    1                 :   -95.63589488    
 total in muffin-tins        :   -308.0306242    
 total charge                :    36.00000000    
 
RMS change in effective potential (target) :    2.728491740     (  0.1000000000E-05)
Absolute change in total energy (target)   :    6.569690146     (  0.1000000000E-03)
 
Time (CPU seconds) :        19.22
 
iteration time (seconds)              :         1.93
  radial setup (linen, APW, radint)   :         0.00        0.00        0.00
  total for secular equation          :         0.00
  first-variational                   :         0.00
  setup                               :         0.00
        setup H (total, MT, IT)             :         0.00        0.00        0.00
        setup O (total, MT, IT)             :         0.00        0.00        0.00
      diagonalization                       :         0.00
    second-variational                      :         0.00
      setup (total, MT, IT)                 :         0.00        0.00        0.00
      diagonalization                       :         0.00
  total for charge and magnetization        :         0.75
    k-point summation (total, MT, IT)       :         0.00        0.00        0.00
    symmetrization                          :         0.00
  potential (total, XC, Ha)                 :         0.32        0.25        0.07
  density matrix setup                      :         0.00
 
+-------------------------+
| Iteration number :   18 |
+-------------------------+
 
New smearing width :   0.2021174929E-02
 
Energies :
 Fermi                       :     0.760843897911    
 sum of eigenvalues          :     -783.130428436    
 electron kinetic            :     -6082.41137061    
   core kinetic              :      1382.35932435    
   valence kinetic           :     -7464.77069496    
 Coulomb                     :      850.297798742    
 Coulomb potential           :      6138.88364669    
 nuclear-nuclear             :     -231.518672808    
 electron-nuclear            :     -3975.25070360    
 Hartree                     :      5057.06717514    
 Madelung                    :     -2219.14402461    
 xc potential                :     -839.602704521    
 exchange                    :     -622.037213498    
 correlation                 :     -23.7829184139    
 total energy                :     -5877.93370378    
 
Density of states at Fermi energy :    1040.727193    
 (states/Hartree/unit cell)
Estimated band gap (eV) :   0.8310982563E-02
 from k-point      4 to k-point      1
Estimated direct band gap (eV) :   0.1271091486E-01
 at k-point      2
 
Charges :
 core                        :    14.00000000    
 core leakage                :   0.3921344367E-02
 valence                     :    22.00000000    
 interstitial                :    344.0604440    
 muffin-tins
  species :    1 (Ni)
   atom    1                 :   -212.3839847    
  species :    2 (O)
   atom    1                 :   -95.67645924    
 total in muffin-tins        :   -308.0604440    
 total charge                :    36.00000000    
 
Wrote STATE.OUT
 
RMS change in effective potential (target) :    1.393390558     (  0.1000000000E-05)
Absolute change in total energy (target)   :    6.354220068     (  0.1000000000E-03)
 
Time (CPU seconds) :        20.20
 
iteration time (seconds)              :         1.94
  radial setup (linen, APW, radint)   :         0.00        0.00        0.00
  total for secular equation          :         0.00
  first-variational                   :         0.00
  setup                               :         0.00
        setup H (total, MT, IT)             :         0.00        0.00        0.00
        setup O (total, MT, IT)             :         0.00        0.00        0.00
      diagonalization                       :         0.00
    second-variational                      :         0.00
      setup (total, MT, IT)                 :         0.00        0.00        0.00
      diagonalization                       :         0.00
  total for charge and magnetization        :         0.73
    k-point summation (total, MT, IT)       :         0.00        0.00        0.00
    symmetrization                          :         0.00
  potential (total, XC, Ha)                 :         0.32        0.25        0.07
  density matrix setup                      :         0.00
 
+-------------------------+
| Iteration number :   19 |
+-------------------------+
 
New smearing width :   0.2021278095E-02
 
Energies :
 Fermi                       :     0.760841222980    
 sum of eigenvalues          :     -782.354414239    
 electron kinetic            :     -6085.82979702    
   core kinetic              :      1380.59049462    
   valence kinetic           :     -7466.42029164    
 Coulomb                     :      851.251542257    
 Coulomb potential           :      6143.38813602    
 nuclear-nuclear             :     -231.518672808    
 electron-nuclear            :     -3977.84770589    
 Hartree                     :      5060.61792095    
 Madelung                    :     -2220.44252575    
 xc potential                :     -839.912753237    
 exchange                    :     -622.247963868    
 correlation                 :     -23.7959177709    
 total energy                :     -5880.62213640    
 
Density of states at Fermi energy :    1040.662647    
 (states/Hartree/unit cell)
Estimated band gap (eV) :   0.8314282898E-02
 from k-point      4 to k-point      1
Estimated direct band gap (eV) :   0.1271419172E-01
 at k-point      2
 
Charges :
 core                        :    14.00000000    
 core leakage                :   0.3903723497E-02
 valence                     :    22.00000000    
 interstitial                :    344.0656828    
 muffin-tins
  species :    1 (Ni)
   atom    1                 :   -212.3819879    
  species :    2 (O)
   atom    1                 :   -95.68369489    
 total in muffin-tins        :   -308.0656828    
 total charge                :    36.00000000    
 
RMS change in effective potential (target) :   0.9224556462     (  0.1000000000E-05)
Absolute change in total energy (target)   :    2.688432620     (  0.1000000000E-03)
 
Time (CPU seconds) :        21.18
 
iteration time (seconds)              :         1.93
  radial setup (linen, APW, radint)   :         0.00        0.00        0.00
  total for secular equation          :         0.00
  first-variational                   :         0.00
  setup                               :         0.00
        setup H (total, MT, IT)             :         0.00        0.00        0.00
        setup O (total, MT, IT)             :         0.00        0.00        0.00
      diagonalization                       :         0.00
    second-variational                      :         0.00
      setup (total, MT, IT)                 :         0.00        0.00        0.00
      diagonalization                       :         0.00
  total for charge and magnetization        :         0.75
    k-point summation (total, MT, IT)       :         0.00        0.00        0.00
    symmetrization                          :         0.00
  potential (total, XC, Ha)                 :         0.32        0.25        0.07
  density matrix setup                      :         0.00
 
+-------------------------+
| Iteration number :   20 |
+-------------------------+
 
New smearing width :   0.2021244270E-02
 
Energies :
 Fermi                       :     0.760838927359    
 sum of eigenvalues          :     -781.357849229    
 electron kinetic            :     -6086.46463385    
   core kinetic              :      1379.32982085    
   valence kinetic           :     -7465.79445470    
 Coulomb                     :      852.551370779    
 Coulomb potential           :      6145.06065576    
 nuclear-nuclear             :     -231.518672808    
 electron-nuclear            :     -3976.92056859    
 Hartree                     :      5060.99061218    
 Madelung                    :     -2219.97895710    
 xc potential                :     -839.953871143    
 exchange                    :     -622.275175586    
 correlation                 :     -23.7990348759    
 total energy                :     -5879.98747353    
 
Density of states at Fermi energy :    1040.651298    
 (states/Hartree/unit cell)
Estimated band gap (eV) :   0.8316649123E-02
 from k-point      4 to k-point      1
Estimated direct band gap (eV) :   0.1271644468E-01
 at k-point      2
 
Charges :
 core                        :    14.00000000    
 core leakage                :   0.3905571557E-02
 valence                     :    22.00000000    
 interstitial                :    344.0673407    
 muffin-tins
  species :    1 (Ni)
   atom    1                 :   -212.3822764    
  species :    2 (O)
   atom    1                 :   -95.68506428    
 total in muffin-tins        :   -308.0673407    
 total charge                :    36.00000000    
 
Wrote STATE.OUT
 
RMS change in effective potential (target) :   0.6361626535     (  0.1000000000E-05)
Absolute change in total energy (target)   :   0.6346628672     (  0.1000000000E-03)
 
Time (CPU seconds) :        22.17
 
iteration time (seconds)              :         1.93
  radial setup (linen, APW, radint)   :         0.00        0.00        0.00
  total for secular equation          :         0.00
  first-variational                   :         0.00
  setup                               :         0.00
        setup H (total, MT, IT)             :         0.00        0.00        0.00
        setup O (total, MT, IT)             :         0.00        0.00        0.00
      diagonalization                       :         0.00
    second-variational                      :         0.00
      setup (total, MT, IT)                 :         0.00        0.00        0.00
      diagonalization                       :         0.00
  total for charge and magnetization        :         0.75
    k-point summation (total, MT, IT)       :         0.00        0.00        0.00
    symmetrization                          :         0.00
  potential (total, XC, Ha)                 :         0.32        0.25        0.07
  density matrix setup                      :         0.00
 
+-------------------------+
| Iteration number :   21 |
+-------------------------+
 
New smearing width :   0.2021202987E-02
 
Energies :
 Fermi                       :     0.760837041332    
 sum of eigenvalues          :     -780.737117223    
 electron kinetic            :     -6087.06034658    
   core kinetic              :      1378.37262338    
   valence kinetic           :     -7465.43296995    
 Coulomb                     :      852.827383131    
 Coulomb potential           :      6146.37926430    
 nuclear-nuclear             :     -231.518672808    
 electron-nuclear            :     -3977.68715242    
 Hartree                     :      5062.03320836    
 Madelung                    :     -2220.36224902    
 xc potential                :     -840.056034940    
 exchange                    :     -622.347489205    
 correlation                 :     -23.8024550710    
 total energy                :     -5880.38290772    
 
Density of states at Fermi energy :    1040.647206    
 (states/Hartree/unit cell)
Estimated band gap (eV) :   0.8318291857E-02
 from k-point      4 to k-point      1
Estimated direct band gap (eV) :   0.1271789986E-01
 at k-point      2
 
Charges :
 core                        :    14.00000000    
 core leakage                :   0.3904838601E-02
 valence                     :    22.00000000    
 interstitial                :    344.0684529    
 muffin-tins
  species :    1 (Ni)
   atom    1                 :   -212.3827480    
  species :    2 (O)
   atom    1                 :   -95.68570494    
 total in muffin-tins        :   -308.0684529    
 total charge                :    36.00000000    
 
RMS change in effective potential (target) :   0.4098895108     (  0.1000000000E-05)
Absolute change in total energy (target)   :   0.3954341917     (  0.1000000000E-03)
 
Time (CPU seconds) :        23.17
 
iteration time (seconds)              :         1.94
  radial setup (linen, APW, radint)   :         0.00        0.00        0.00
  total for secular equation          :         0.00
  first-variational                   :         0.00
  setup                               :         0.00
        setup H (total, MT, IT)             :         0.00        0.00        0.00
        setup O (total, MT, IT)             :         0.00        0.00        0.00
      diagonalization                       :         0.00
    second-variational                      :         0.00
      setup (total, MT, IT)                 :         0.00        0.00        0.00
      diagonalization                       :         0.00
  total for charge and magnetization        :         0.75
    k-point summation (total, MT, IT)       :         0.00        0.00        0.00
    symmetrization                          :         0.00
  potential (total, XC, Ha)                 :         0.32        0.25        0.07
  density matrix setup                      :         0.00
 
+-------------------------+
| Iteration number :   22 |
+-------------------------+
 
New smearing width :   0.2021142752E-02
 
Energies :
 Fermi                       :     0.760835621981    
 sum of eigenvalues          :     -780.210462502    
 electron kinetic            :     -6086.52275652    
   core kinetic              :      1378.00647956    
   valence kinetic           :     -7464.52923608    
 Coulomb                     :      853.499527188    
 Coulomb potential           :      6146.31624301    
 nuclear-nuclear             :     -231.518672808    
 electron-nuclear            :     -3976.27984302    
 Hartree                     :      5061.29804301    
 Madelung                    :     -2219.65859432    
 xc potential                :     -840.003948992    
 exchange                    :     -622.312030884    
 correlation                 :     -23.8011122866    
 total energy                :     -5879.13637250    
 
Density of states at Fermi energy :    1040.655410    
 (states/Hartree/unit cell)
Estimated band gap (eV) :   0.8319302506E-02
 from k-point      4 to k-point      1
Estimated direct band gap (eV) :   0.1271868893E-01
 at k-point      2
 
Charges :
 core                        :    14.00000000    
 core leakage                :   0.3912329515E-02
 valence                     :    22.00000000    
 interstitial                :    344.0685920    
 muffin-tins
  species :    1 (Ni)
   atom    1                 :   -212.3835167    
  species :    2 (O)
   atom    1                 :   -95.68507537    
 total in muffin-tins        :   -308.0685920    
 total charge                :    36.00000000    
 
Wrote STATE.OUT
 
RMS change in effective potential (target) :   0.2549371051     (  0.1000000000E-05)
Absolute change in total energy (target)   :    1.246535222     (  0.1000000000E-03)
 
Time (CPU seconds) :        24.16
 
iteration time (seconds)              :         1.93
  radial setup (linen, APW, radint)   :         0.00        0.00        0.00
  total for secular equation          :         0.00
  first-variational                   :         0.00
  setup                               :         0.00
        setup H (total, MT, IT)             :         0.00        0.00        0.00
        setup O (total, MT, IT)             :         0.00        0.00        0.00
      diagonalization                       :         0.00
    second-variational                      :         0.00
      setup (total, MT, IT)                 :         0.00        0.00        0.00
      diagonalization                       :         0.00
  total for charge and magnetization        :         0.75
    k-point summation (total, MT, IT)       :         0.00        0.00        0.00
    symmetrization                          :         0.00
  potential (total, XC, Ha)                 :         0.32        0.25        0.07
  density matrix setup                      :         0.00
 
+-------------------------+
| Iteration number :   23 |
+-------------------------+
 
New smearing width :   0.2021088054E-02
 
Energies :
 Fermi                       :     0.760834612544    
 sum of eigenvalues          :     -780.101486931    
 electron kinetic            :     -6087.31912077    
   core kinetic              :      1377.35438184    
   valence kinetic           :     -7464.67350261    
 Coulomb                     :      852.609072327    
 Coulomb potential           :      6147.39743011    
 nuclear-nuclear             :     -231.518672808    
 electron-nuclear            :     -3979.14193984    
 Hartree                     :      5063.26968498    
 Madelung                    :     -2221.08964273    
 xc potential                :     -840.179796269    
 exchange                    :     -622.437733419    
 correlation                 :     -23.8054052882    
 total energy                :     -5880.95318715    
 
Density of states at Fermi energy :    1040.665063    
 (states/Hartree/unit cell)
Estimated band gap (eV) :   0.8319917133E-02
 from k-point      4 to k-point      1
Estimated direct band gap (eV) :   0.1271908353E-01
 at k-point      2
 
Charges :
 core                        :    14.00000000    
 core leakage                :   0.3905954393E-02
 valence                     :    22.00000000    
 interstitial                :    344.0692713    
 muffin-tins
  species :    1 (Ni)
   atom    1                 :   -212.3839499    
  species :    2 (O)
   atom    1                 :   -95.68532143    
 total in muffin-tins        :   -308.0692713    
 total charge                :    36.00000000    
 
RMS change in effective potential (target) :   0.1318981728     (  0.1000000000E-05)
Absolute change in total energy (target)   :    1.816814651     (  0.1000000000E-03)
 
Time (CPU seconds) :        25.15
 
iteration time (seconds)              :         1.93
  radial setup (linen, APW, radint)   :         0.00        0.00        0.00
  total for secular equation          :         0.00
  first-variational                   :         0.00
  setup                               :         0.00
        setup H (total, MT, IT)             :         0.00        0.00        0.00
        setup O (total, MT, IT)             :         0.00        0.00        0.00
      diagonalization                       :         0.00
    second-variational                      :         0.00
      setup (total, MT, IT)                 :         0.00        0.00        0.00
      diagonalization                       :         0.00
  total for charge and magnetization        :         0.75
    k-point summation (total, MT, IT)       :         0.00        0.00        0.00
    symmetrization                          :         0.00
  potential (total, XC, Ha)                 :         0.32        0.25        0.07
  density matrix setup                      :         0.00
 
+-------------------------+
| Iteration number :   24 |
+-------------------------+
 
New smearing width :   0.2021024823E-02
 
Energies :
 Fermi                       :     0.760834005165    
 sum of eigenvalues          :     -779.579328914    
 electron kinetic            :     -6085.71997589    
   core kinetic              :      1377.28572397    
   valence kinetic           :     -7463.00569985    
 Coulomb                     :      853.487999187    
 Coulomb potential           :      6146.15500152    
 nuclear-nuclear             :     -231.518672808    
 electron-nuclear            :     -3976.14165753    
 Hartree                     :      5061.14832952    
 Madelung                    :     -2219.58950157    
 xc potential                :     -840.014354541    
 exchange                    :     -622.324303510    
 correlation                 :     -23.8002482087    
 total energy                :     -5878.35652842    
 
Density of states at Fermi energy :    1040.682355    
 (states/Hartree/unit cell)
Estimated band gap (eV) :   0.8320177542E-02
 from k-point      4 to k-point      1
Estimated direct band gap (eV) :   0.1271916330E-01
 at k-point      2
 
Charges :
 core                        :    14.00000000    
 core leakage                :   0.3919994154E-02
 valence                     :    22.00000000    
 interstitial                :    344.0678215    
 muffin-tins
  species :    1 (Ni)
   atom    1                 :   -212.3852284    
  species :    2 (O)
   atom    1                 :   -95.68259311    
 total in muffin-tins        :   -308.0678215    
 total charge                :    36.00000000    
 
Wrote STATE.OUT
 
RMS change in effective potential (target) :   0.1071921535     (  0.1000000000E-05)
Absolute change in total energy (target)   :    2.596658733     (  0.1000000000E-03)
 
Time (CPU seconds) :        26.13
 
iteration time (seconds)              :         1.93
  radial setup (linen, APW, radint)   :         0.00        0.00        0.00
  total for secular equation          :         0.00
  first-variational                   :         0.00
  setup                               :         0.00
        setup H (total, MT, IT)             :         0.00        0.00        0.00
        setup O (total, MT, IT)             :         0.00        0.00        0.00
      diagonalization                       :         0.00
    second-variational                      :         0.00
      setup (total, MT, IT)                 :         0.00        0.00        0.00
      diagonalization                       :         0.00
  total for charge and magnetization        :         0.75
    k-point summation (total, MT, IT)       :         0.00        0.00        0.00
    symmetrization                          :         0.00
  potential (total, XC, Ha)                 :         0.31        0.25        0.07
  density matrix setup                      :         0.00
 
+-------------------------+
| Iteration number :   25 |
+-------------------------+
 
New smearing width :   0.2021013998E-02
 
Energies :
 Fermi                       :     0.760833522842    
 sum of eigenvalues          :     -779.588823424    
 electron kinetic            :     -6086.48727840    
   core kinetic              :      1377.30331110    
   valence kinetic           :     -7463.79058950    
 Coulomb                     :      854.314319976    
 Coulomb potential           :      6146.84910241    
 nuclear-nuclear             :     -231.518672808    
 electron-nuclear            :     -3975.18311684    
 Hartree                     :      5061.01610963    
 Madelung                    :     -2219.11023123    
 xc potential                :     -839.950647432    
 exchange                    :     -622.274899857    
 correlation                 :     -23.8008134937    
 total energy                :     -5878.24867178    
 
Density of states at Fermi energy :    1040.680865    
 (states/Hartree/unit cell)
Estimated band gap (eV) :   0.8320538349E-02
 from k-point      4 to k-point      1
Estimated direct band gap (eV) :   0.1271942726E-01
 at k-point      2
 
Charges :
 core                        :    14.00000000    
 core leakage                :   0.3918493716E-02
 valence                     :    22.00000000    
 interstitial                :    344.0723711    
 muffin-tins
  species :    1 (Ni)
   atom    1                 :   -212.3836032    
  species :    2 (O)
   atom    1                 :   -95.68876786    
 total in muffin-tins        :   -308.0723711    
 total charge                :    36.00000000    
 
RMS change in effective potential (target) :   0.1013302908     (  0.1000000000E-05)
Absolute change in total energy (target)   :   0.1078566425     (  0.1000000000E-03)
 
Time (CPU seconds) :        27.12
 
iteration time (seconds)              :         1.93
  radial setup (linen, APW, radint)   :         0.00        0.00        0.00
  total for secular equation          :         0.00
  first-variational                   :         0.00
  setup                               :         0.00
        setup H (total, MT, IT)             :         0.00        0.00        0.00
        setup O (total, MT, IT)             :         0.00        0.00        0.00
      diagonalization                       :         0.00
    second-variational                      :         0.00
      setup (total, MT, IT)                 :         0.00        0.00        0.00
      diagonalization                       :         0.00
  total for charge and magnetization        :         0.75
    k-point summation (total, MT, IT)       :         0.00        0.00        0.00
    symmetrization                          :         0.00
  potential (total, XC, Ha)                 :         0.32        0.25        0.07
  density matrix setup                      :         0.00
 
+-------------------------+
| Iteration number :   26 |
+-------------------------+
 
New smearing width :   0.2020923385E-02
 
Energies :
 Fermi                       :     0.760833497408    
 sum of eigenvalues          :     -779.634921019    
 electron kinetic            :     -6085.94193136    
   core kinetic              :      1377.28099806    
   valence kinetic           :     -7463.22292943    
 Coulomb                     :      852.655313801    
 Coulomb potential           :      6146.45177329    
 nuclear-nuclear             :     -231.518672808    
 electron-nuclear            :     -3978.10380007    
 Hartree                     :      5062.27778668    
 Madelung                    :     -2220.57057284    
 xc potential                :     -840.144762942    
 exchange                    :     -622.419313989    
 correlation                 :     -23.8025685808    
 total energy                :     -5879.50850013    
 
Density of states at Fermi energy :    1040.714333    
 (states/Hartree/unit cell)
Estimated band gap (eV) :   0.8320358008E-02
 from k-point      4 to k-point      1
Estimated direct band gap (eV) :   0.1271909942E-01
 at k-point      2
 
Charges :
 core                        :    14.00000000    
 core leakage                :   0.3915188100E-02
 valence                     :    22.00000000    
 interstitial                :    344.0665823    
 muffin-tins
  species :    1 (Ni)
   atom    1                 :   -212.3865219    
  species :    2 (O)
   atom    1                 :   -95.68006044    
 total in muffin-tins        :   -308.0665823    
 total charge                :    36.00000000    
 
Wrote STATE.OUT
 
RMS change in effective potential (target) :   0.7756998911E-01 (  0.1000000000E-05)
Absolute change in total energy (target)   :    1.259828354     (  0.1000000000E-03)
 
Time (CPU seconds) :        28.11
 
iteration time (seconds)              :         1.93
  radial setup (linen, APW, radint)   :         0.00        0.00        0.00
  total for secular equation          :         0.00
  first-variational                   :         0.00
  setup                               :         0.00
[...]
  density matrix setup                      :         0.00
 
+-------------------------+
| Iteration number :   94 |
+-------------------------+
 
New smearing width :   0.2020925163E-02
 
Energies :
 Fermi                       :     0.760833287888    
 sum of eigenvalues          :     -779.582997047    
 electron kinetic            :     -6085.99703502    
   core kinetic              :      1377.37234268    
   valence kinetic           :     -7463.36937770    
 Coulomb                     :      852.923847327    
 Coulomb potential           :      6146.50944194    
 nuclear-nuclear             :     -231.518672808    
 electron-nuclear            :     -3977.62440167    
 Hartree                     :      5062.06692180    
 Madelung                    :     -2220.33087364    
 xc potential                :     -840.095403964    
 exchange                    :     -622.384066869    
 correlation                 :     -23.8020708155    
 total energy                :     -5879.25932538    
 
Density of states at Fermi energy :    1040.710186    
 (states/Hartree/unit cell)
Estimated band gap (eV) :   0.8320727346E-02
 from k-point      4 to k-point      1
Estimated direct band gap (eV) :   0.1271942390E-01
 at k-point      2
 
Charges :
 core                        :    14.00000000    
 core leakage                :   0.3914964055E-02
 valence                     :    22.00000000    
 interstitial                :    344.0692340    
 muffin-tins
  species :    1 (Ni)
   atom    1                 :   -212.3858045    
  species :    2 (O)
   atom    1                 :   -95.68342945    
 total in muffin-tins        :   -308.0692340    
 total charge                :    36.00000000    
 
Wrote STATE.OUT
 
RMS change in effective potential (target) :   0.6482810324E-04 (  0.1000000000E-05)
Absolute change in total energy (target)   :   0.3043002896E-02 (  0.1000000000E-03)
 
Time (CPU seconds) :        95.10
 
iteration time (seconds)              :         1.91
  radial setup (linen, APW, radint)   :         0.00        0.00        0.00
  total for secular equation          :         0.00
  first-variational                   :         0.00
  setup                               :         0.00
        setup H (total, MT, IT)             :         0.00        0.00        0.00
        setup O (total, MT, IT)             :         0.00        0.00        0.00
      diagonalization                       :         0.00
    second-variational                      :         0.00
      setup (total, MT, IT)                 :         0.00        0.00        0.00
      diagonalization                       :         0.00
  total for charge and magnetization        :         0.74
    k-point summation (total, MT, IT)       :         0.00        0.00        0.00
    symmetrization                          :         0.00
  potential (total, XC, Ha)                 :         0.31        0.24        0.07
  density matrix setup                      :         0.00
 
+-------------------------+
| Iteration number :   95 |
+-------------------------+
 
New smearing width :   0.2020925134E-02
 
Energies :
 Fermi                       :     0.760833298939    
 sum of eigenvalues          :     -779.582988656    
 electron kinetic            :     -6086.00747766    
   core kinetic              :      1377.37233968    
   valence kinetic           :     -7463.37981734    
 Coulomb                     :      852.929181225    
 Coulomb potential           :      6146.52032412    
 nuclear-nuclear             :     -231.518672808    
 electron-nuclear            :     -3977.62461605    
 Hartree                     :      5062.07247008    
 Madelung                    :     -2220.33098083    
 xc potential                :     -840.095835112    
 exchange                    :     -622.384380945    
 correlation                 :     -23.8020853482    
 total energy                :     -5879.26476273    
 
Density of states at Fermi energy :    1040.709584    
 (states/Hartree/unit cell)
Estimated band gap (eV) :   0.8320727692E-02
 from k-point      4 to k-point      1
Estimated direct band gap (eV) :   0.1271942433E-01
 at k-point      2
 
Charges :
 core                        :    14.00000000    
 core leakage                :   0.3914964187E-02
 valence                     :    22.00000000    
 interstitial                :    344.0694314    
 muffin-tins
  species :    1 (Ni)
   atom    1                 :   -212.3859118    
  species :    2 (O)
   atom    1                 :   -95.68351964    
 total in muffin-tins        :   -308.0694314    
 total charge                :    36.00000000    
 
RMS change in effective potential (target) :   0.7473211164E-04 (  0.1000000000E-05)
Absolute change in total energy (target)   :   0.5437347098E-02 (  0.1000000000E-03)
 
Time (CPU seconds) :        96.08
 
iteration time (seconds)              :         1.91
  radial setup (linen, APW, radint)   :         0.00        0.00        0.00
  total for secular equation          :         0.00
  first-variational                   :         0.00
  setup                               :         0.00
        setup H (total, MT, IT)             :         0.00        0.00        0.00
        setup O (total, MT, IT)             :         0.00        0.00        0.00
      diagonalization                       :         0.00
    second-variational                      :         0.00
      setup (total, MT, IT)                 :         0.00        0.00        0.00
      diagonalization                       :         0.00
  total for charge and magnetization        :         0.75
    k-point summation (total, MT, IT)       :         0.00        0.00        0.00
    symmetrization                          :         0.00
  potential (total, XC, Ha)                 :         0.31        0.25        0.07
  density matrix setup                      :         0.00
 
+-------------------------+
| Iteration number :   96 |
+-------------------------+
 
New smearing width :   0.2020926992E-02
 
Energies :
 Fermi                       :     0.760833288954    
 sum of eigenvalues          :     -779.582994358    
 electron kinetic            :     -6085.99746705    
   core kinetic              :      1377.37234301    
   valence kinetic           :     -7463.36981007    
 Coulomb                     :      852.924055546    
 Coulomb potential           :      6146.50987985    
 nuclear-nuclear             :     -231.518672808    
 electron-nuclear            :     -3977.62442314    
 Hartree                     :      5062.06715150    
 Madelung                    :     -2220.33088438    
 xc potential                :     -840.095407155    
 exchange                    :     -622.384069646    
 correlation                 :     -23.8020707225    
 total energy                :     -5879.25955187    
 
Density of states at Fermi energy :    1040.709509    
 (states/Hartree/unit cell)
Estimated band gap (eV) :   0.8320727098E-02
 from k-point      4 to k-point      1
Estimated direct band gap (eV) :   0.1271942359E-01
 at k-point      2
 
Charges :
 core                        :    14.00000000    
 core leakage                :   0.3914964331E-02
 valence                     :    22.00000000    
 interstitial                :    344.0692343    
 muffin-tins
  species :    1 (Ni)
   atom    1                 :   -212.3858076    
  species :    2 (O)
   atom    1                 :   -95.68342668    
 total in muffin-tins        :   -308.0692343    
 total charge                :    36.00000000    
 
Wrote STATE.OUT
 
RMS change in effective potential (target) :   0.5590111365E-04 (  0.1000000000E-05)
Absolute change in total energy (target)   :   0.5210852813E-02 (  0.1000000000E-03)
 
Time (CPU seconds) :        97.05
 
iteration time (seconds)              :         1.92
  radial setup (linen, APW, radint)   :         0.00        0.00        0.00
  total for secular equation          :         0.00
  first-variational                   :         0.00
  setup                               :         0.00
        setup H (total, MT, IT)             :         0.00        0.00        0.00
        setup O (total, MT, IT)             :         0.00        0.00        0.00
      diagonalization                       :         0.00
    second-variational                      :         0.00
      setup (total, MT, IT)                 :         0.00        0.00        0.00
      diagonalization                       :         0.00
  total for charge and magnetization        :         0.73
    k-point summation (total, MT, IT)       :         0.00        0.00        0.00
    symmetrization                          :         0.00
  potential (total, XC, Ha)                 :         0.31        0.24        0.07
  density matrix setup                      :         0.00
 
+-------------------------+
| Iteration number :   97 |
+-------------------------+
 
New smearing width :   0.2020925170E-02
 
Energies :
 Fermi                       :     0.760833287975    
 sum of eigenvalues          :     -779.582996853    
 electron kinetic            :     -6085.99100454    
   core kinetic              :      1377.37234255    
   valence kinetic           :     -7463.36334709    
 Coulomb                     :      852.920832689    
 Coulomb potential           :      6146.50341345    
 nuclear-nuclear             :     -231.518672808    
 electron-nuclear            :     -3977.62440246    
 Hartree                     :      5062.06390796    
 Madelung                    :     -2220.33087404    
 xc potential                :     -840.095405768    
 exchange                    :     -622.384068179    
 correlation                 :     -23.8020708784    
 total energy                :     -5879.25631091    
 
Density of states at Fermi energy :    1040.710181    
 (states/Hartree/unit cell)
Estimated band gap (eV) :   0.8320727322E-02
 from k-point      4 to k-point      1
Estimated direct band gap (eV) :   0.1271942387E-01
 at k-point      2
 
Charges :
 core                        :    14.00000000    
 core leakage                :   0.3914964025E-02
 valence                     :    22.00000000    
 interstitial                :    344.0692348    
 muffin-tins
  species :    1 (Ni)
   atom    1                 :   -212.3858050    
  species :    2 (O)
   atom    1                 :   -95.68342981    
 total in muffin-tins        :   -308.0692348    
 total charge                :    36.00000000    
 
RMS change in effective potential (target) :   0.6300391095E-04 (  0.1000000000E-05)
Absolute change in total energy (target)   :   0.3240967138E-02 (  0.1000000000E-03)
 
Time (CPU seconds) :        98.02
 
iteration time (seconds)              :         1.92
  radial setup (linen, APW, radint)   :         0.00        0.00        0.00
  total for secular equation          :         0.00
  first-variational                   :         0.00
  setup                               :         0.00
        setup H (total, MT, IT)             :         0.00        0.00        0.00
        setup O (total, MT, IT)             :         0.00        0.00        0.00
      diagonalization                       :         0.00
    second-variational                      :         0.00
      setup (total, MT, IT)                 :         0.00        0.00        0.00
      diagonalization                       :         0.00
  total for charge and magnetization        :         0.74
    k-point summation (total, MT, IT)       :         0.00        0.00        0.00
    symmetrization                          :         0.00
  potential (total, XC, Ha)                 :         0.32        0.25        0.07
  density matrix setup                      :         0.00
 
+-------------------------+
| Iteration number :   98 |
+-------------------------+
 
New smearing width :   0.2020925141E-02
 
Energies :
 Fermi                       :     0.760833299051    
 sum of eigenvalues          :     -779.582988441    
 electron kinetic            :     -6086.00011257    
   core kinetic              :      1377.37233957    
   valence kinetic           :     -7463.37245214    
 Coulomb                     :      852.925499604    
 Coulomb potential           :      6146.51296158    
 nuclear-nuclear             :     -231.518672808    
 electron-nuclear            :     -3977.62461676    
 Hartree                     :      5062.06878917    
 Madelung                    :     -2220.33098119    
 xc potential                :     -840.095837451    
 exchange                    :     -622.384382645    
 correlation                 :     -23.8020854295    
 total energy                :     -5879.26108104    
 
Density of states at Fermi energy :    1040.709578    
 (states/Hartree/unit cell)
Estimated band gap (eV) :   0.8320727697E-02
 from k-point      4 to k-point      1
Estimated direct band gap (eV) :   0.1271942428E-01
 at k-point      2
 
Charges :
 core                        :    14.00000000    
 core leakage                :   0.3914964083E-02
 valence                     :    22.00000000    
 interstitial                :    344.0694325    
 muffin-tins
  species :    1 (Ni)
   atom    1                 :   -212.3859124    
  species :    2 (O)
   atom    1                 :   -95.68352012    
 total in muffin-tins        :   -308.0694325    
 total charge                :    36.00000000    
 
Wrote STATE.OUT
 
RMS change in effective potential (target) :   0.6176330542E-04 (  0.1000000000E-05)
Absolute change in total energy (target)   :   0.4770133164E-02 (  0.1000000000E-03)
 
Time (CPU seconds) :        99.00
 
iteration time (seconds)              :         1.91
  radial setup (linen, APW, radint)   :         0.00        0.00        0.00
  total for secular equation          :         0.00
  first-variational                   :         0.00
  setup                               :         0.00
        setup H (total, MT, IT)             :         0.00        0.00        0.00
        setup O (total, MT, IT)             :         0.00        0.00        0.00
      diagonalization                       :         0.00
    second-variational                      :         0.00
      setup (total, MT, IT)                 :         0.00        0.00        0.00
      diagonalization                       :         0.00
  total for charge and magnetization        :         0.74
    k-point summation (total, MT, IT)       :         0.00        0.00        0.00
    symmetrization                          :         0.00
  potential (total, XC, Ha)                 :         0.31        0.24        0.07
  density matrix setup                      :         0.00
 
+-------------------------+
| Iteration number :   99 |
+-------------------------+
 
New smearing width :   0.2020927002E-02
 
Energies :
 Fermi                       :     0.760833289074    
 sum of eigenvalues          :     -779.582994146    
 electron kinetic            :     -6085.99101641    
   core kinetic              :      1377.37234296    
   valence kinetic           :     -7463.36335937    
 Coulomb                     :      852.920832981    
 Coulomb potential           :      6146.50343169    
 nuclear-nuclear             :     -231.518672808    
 electron-nuclear            :     -3977.62442012    
 Hartree                     :      5062.06392590    
 Madelung                    :     -2220.33088287    
 xc potential                :     -840.095409432    
 exchange                    :     -622.384071307    
 correlation                 :     -23.8020708024    
 total energy                :     -5879.25632553    
 
Density of states at Fermi energy :    1040.709502    
 (states/Hartree/unit cell)
Estimated band gap (eV) :   0.8320727051E-02
 from k-point      4 to k-point      1
Estimated direct band gap (eV) :   0.1271942356E-01
 at k-point      2
 
Charges :
 core                        :    14.00000000    
 core leakage                :   0.3914964188E-02
 valence                     :    22.00000000    
 interstitial                :    344.0692354    
 muffin-tins
  species :    1 (Ni)
   atom    1                 :   -212.3858082    
  species :    2 (O)
   atom    1                 :   -95.68342718    
 total in muffin-tins        :   -308.0692354    
 total charge                :    36.00000000    
 
RMS change in effective potential (target) :   0.5465170869E-04 (  0.1000000000E-05)
Absolute change in total energy (target)   :   0.4755505485E-02 (  0.1000000000E-03)
 
Time (CPU seconds) :        99.97
 
iteration time (seconds)              :         1.91
  radial setup (linen, APW, radint)   :         0.00        0.00        0.00
  total for secular equation          :         0.00
  first-variational                   :         0.00
  setup                               :         0.00
        setup H (total, MT, IT)             :         0.00        0.00        0.00
        setup O (total, MT, IT)             :         0.00        0.00        0.00
      diagonalization                       :         0.00
    second-variational                      :         0.00
      setup (total, MT, IT)                 :         0.00        0.00        0.00
      diagonalization                       :         0.00
  total for charge and magnetization        :         0.74
    k-point summation (total, MT, IT)       :         0.00        0.00        0.00
    symmetrization                          :         0.00
  potential (total, XC, Ha)                 :         0.31        0.24        0.07
  density matrix setup                      :         0.00
 
+-------------------------+
| Iteration number :  100 |
+-------------------------+
 
Reached self-consistent loops maximum
 
New smearing width :   0.2020925181E-02
 
Energies :
 Fermi                       :     0.760833288113    
 sum of eigenvalues          :     -779.582996692    
 electron kinetic            :     -6085.99713321    
   core kinetic              :      1377.37234251    
   valence kinetic           :     -7463.36947572    
 Coulomb                     :      852.923898676    
 Coulomb potential           :      6146.50954511    
 nuclear-nuclear             :     -231.518672808    
 electron-nuclear            :     -3977.62440214    
 Hartree                     :      5062.06697362    
 Madelung                    :     -2220.33087388    
 xc potential                :     -840.095408585    
 exchange                    :     -622.384070231    
 correlation                 :     -23.8020709748    
 total energy                :     -5879.25937575    
 
Density of states at Fermi energy :    1040.710173    
 (states/Hartree/unit cell)
Estimated band gap (eV) :   0.8320727291E-02
 from k-point      4 to k-point      1
Estimated direct band gap (eV) :   0.1271942381E-01
 at k-point      2
 
Charges :
 core                        :    14.00000000    
 core leakage                :   0.3914963933E-02
 valence                     :    22.00000000    
 interstitial                :    344.0692361    
 muffin-tins
  species :    1 (Ni)
   atom    1                 :   -212.3858057    
  species :    2 (O)
   atom    1                 :   -95.68343038    
 total in muffin-tins        :   -308.0692361    
 total charge                :    36.00000000    
 
Wrote STATE.OUT
 
+------------------------------+
| Self-consistent loop stopped |
+------------------------------+
 
Wrote STATE.OUT
 
Timings (CPU seconds) :
 initialisation                        :         2.02
 Hamiltonian and overlap matrix set up :         0.00
 first-variational secular equation    :         0.00
 charge density calculation            :        66.99
 potential calculation                 :        31.95
 total                                 :       100.95
 
+-----------------------------+
| Elk version 1.0.017 stopped |
+-----------------------------+
