+----------------------------+
| Elk version 1.0.17 started |
+----------------------------+
 
Date (YYYY-MM-DD) : 2019-05-10
Time (hh:mm:ss)   : 00:24:40
 
All units are atomic (Hartree, Bohr, etc.)
 
+-------------------------------------------------+
| Ground-state run starting from atomic densities |
+-------------------------------------------------+
 
Lattice vectors :
   0.000000000       3.940078686       3.940078686    
   3.940078686       0.000000000       3.940078686    
   3.940078686       3.940078686       0.000000000    
 
Reciprocal lattice vectors :
 -0.7973426177      0.7973426177      0.7973426177    
  0.7973426177     -0.7973426177      0.7973426177    
  0.7973426177      0.7973426177     -0.7973426177    
 
Unit cell volume      :    122.3332971    
Brillouin zone volume :    2.027659021    
 
Species :    1 (Ni)
 parameters loaded from : Ni.in
 name : nickel
 nuclear charge    :   -28.00000000    
 electronic charge :    28.00000000    
 atomic mass :    106991.5230    
 muffin-tin radius :    2.000000000    
 effective infinity radius :    32.31810000    
 number of radial points in muffin-tin :    749
 number of radial points to effective infinity :    883
 atomic positions (lattice), magnetic fields (Cartesian) :
   1 :   0.00000000  0.00000000  0.00000000    0.00000000  0.00000000  0.00000000
 
Species :    2 (O)
 parameters loaded from : O.in
 name : oxygen
 nuclear charge    :   -8.000000000    
 electronic charge :    8.000000000    
 atomic mass :    29165.12202    
 muffin-tin radius :    1.600000000    
 effective infinity radius :    23.49150000    
 number of radial points in muffin-tin :    449
 number of radial points to effective infinity :    531
 atomic positions (lattice), magnetic fields (Cartesian) :
   1 :   0.50000000  0.50000000  0.50000000    0.00000000  0.00000000  0.00000000
 
Total number of atoms per unit cell :    2
 
Spin treatment :
 spin-unpolarised
 
Number of Bravais lattice symmetries :   48
Number of crystal symmetries         :   48
 
k-point grid :      4     4     4
k-point offset :    0.000000000       0.000000000       0.000000000    
k-point set is reduced with full crystal symmetry group
Total number of k-points :        8
 
Muffin-tin radius times maximum |G+k| :    7.000000000    
 using average radius
Maximum |G+k| for APW functions       :    4.375000000    
Maximum (1/2)|G+k|^2                  :    9.570312500    
Maximum |G| for potential and density :    20.00000000    
Polynomial order for pseudocharge density :    9
Radial integration step length :    4
 
G-vector grid sizes       :     36    36    36
Total number of G-vectors :    16529
Total number of points    :    46656
FFT grid density          :       381.38 [1/a.u.^3]
 
Maximum angular momentum used for
 APW functions                      :    8
 potential and density              :    8
 
Total nuclear charge    :   -36.00000000    
Total core charge       :    14.00000000    
Total valence charge    :    22.00000000    
Total excess charge     :    0.000000000    
Total electronic charge :    36.00000000    
 
Effective Wigner radius, r_s :   0.9326482012    
 
Number of empty states         :   10
Total number of valence states :   21
 
Total number of local-orbitals :   29
 
Exchange-correlation functional :     20     0     0
 Perdew-Burke-Ernzerhof, Phys. Rev. Lett. 77, 3865 (1996)
 Generalised gradient approximation (GGA)
 
Smearing type :    0
 Gaussian
Automatic determination of smearing width
 
Mixing type :    1
 Adaptive linear mixing
 
initialization time :       2.16 sec.
 
Density and potential initialised from atomic data
 done in :       9.85 sec.
 
Species :    1 (Ni)
  n : 1   l : 0   k : 1   energy :   -301.0896631    
  n : 2   l : 0   k : 1   energy :   -35.99433926    
  n : 2   l : 1   k : 1   energy :   -31.43871295    
  n : 2   l : 1   k : 2   energy :   -30.79773787    
  n : 3   l : 0   k : 1   energy :   -4.058918521    
  n : 3   l : 1   k : 1   energy :   -2.672056777    
  n : 3   l : 1   k : 2   energy :   -2.590449408    
  n : 3   l : 2   k : 2   energy :  -0.3405109173    
  n : 3   l : 2   k : 3   energy :  -0.3316771827    
  n : 4   l : 0   k : 1   energy :  -0.2152731531    
 
Species :    2 (O)
  n : 1   l : 0   k : 1   energy :   -18.77293060    
  n : 2   l : 0   k : 1   energy :  -0.8727381850    
  n : 2   l : 1   k : 1   energy :  -0.3387244230    
  n : 2   l : 1   k : 2   energy :  -0.3373705034    
 
 
+------------------------------+
| Self-consistent loop started |
+------------------------------+
 
+-------------------------+
| Iteration number :    1 |
+-------------------------+
 
New smearing width :   0.1000000000E-01
 
Energies :
 Fermi                       :     0.414828313199    
 sum of eigenvalues          :     -912.269241574    
 electron kinetic            :      1587.80958740    
   core kinetic              :      1402.79051111    
   valence kinetic           :      185.019076295    
 Coulomb                     :     -3176.03745780    
 Coulomb potential           :     -2400.55018692    
 nuclear-nuclear             :     -231.518672808    
 electron-nuclear            :     -3488.48738307    
 Hartree                     :      543.968598075    
 Madelung                    :     -1975.76236434    
 xc potential                :     -99.5286420579    
 exchange                    :     -73.7460141985    
 correlation                 :     -1.72375743637    
 total energy                :     -1663.69764203    
 
Density of states at Fermi energy :    22.92056106    
 (states/Hartree/unit cell)
Estimated band gap (eV) :   0.4388625975    
 from k-point      6 to k-point      6
Estimated direct band gap (eV) :   0.4388625975    
 at k-point      6
 
Charges :
 core                        :    14.00000000    
 core leakage                :   0.2230708984E-02
 valence                     :    22.00000000    
 interstitial                :    4.004587435    
 muffin-tins
  species :    1 (Ni)
   atom    1                 :    27.99741065    
  species :    2 (O)
   atom    1                 :    3.998001918    
 total in muffin-tins        :    31.99541257    
 total charge                :    36.00000000    
 
Time (CPU seconds) :         3.58
 
iteration time (seconds)              :         1.78
  radial setup (linen, APW, radint)   :         0.00        0.00        0.00
  total for secular equation          :         0.16
  first-variational                   :         0.15
  setup                               :         0.09
        setup H (total, MT, IT)             :         0.08        0.08        0.00
        setup O (total, MT, IT)             :         0.01        0.01        0.00
      diagonalization                       :         0.05
    second-variational                      :         0.00
      setup (total, MT, IT)                 :         0.00        0.00        0.00
      diagonalization                       :         0.00
  total for charge and magnetization        :         0.59
    k-point summation (total, MT, IT)       :         0.00        0.00        0.00
    symmetrization                          :         0.00
  potential (total, XC, Ha)                 :         0.33        0.26        0.07
  density matrix setup                      :         0.00
 
+-------------------------+
| Iteration number :    2 |
+-------------------------+
 
New smearing width :   0.8222971755E-02
 
Energies :
 Fermi                       :     0.570932067972    
 sum of eigenvalues          :     -864.431043421    
 electron kinetic            :      1666.38389976    
   core kinetic              :      1434.55992029    
   valence kinetic           :      231.823979468    
 Coulomb                     :     -3039.53118236    
 Coulomb potential           :     -2441.15546626    
 nuclear-nuclear             :     -231.518672808    
 electron-nuclear            :     -3174.86955285    
 Hartree                     :      366.857043295    
 Madelung                    :     -1818.95344923    
 xc potential                :     -89.6594769240    
 exchange                    :     -66.4323921056    
 correlation                 :     -1.62766674577    
 total energy                :     -1441.20734145    
 
Density of states at Fermi energy :    34.44932446    
 (states/Hartree/unit cell)
Estimated band gap (eV) :   0.4246854340    
 from k-point      4 to k-point      4
Estimated direct band gap (eV) :   0.4246854340    
 at k-point      4
 
Charges :
 core                        :    14.00000000    
 core leakage                :   0.1788446932E-01
 valence                     :    22.00000000    
 interstitial                :    8.023226207    
 muffin-tins
  species :    1 (Ni)
   atom    1                 :    17.98385375    
  species :    2 (O)
   atom    1                 :    9.992920041    
 total in muffin-tins        :    27.97677379    
 total charge                :    36.00000000    
 
Wrote STATE.OUT
 
RMS change in effective potential (target) :    3.986427305     (  0.1000000000E-05)
Absolute change in total energy (target)   :    222.4903006     (  0.1000000000E-03)
 
Time (CPU seconds) :         4.57
 
iteration time (seconds)              :         1.75
  radial setup (linen, APW, radint)   :         0.00        0.00        0.00
  total for secular equation          :         0.16
  first-variational                   :         0.15
  setup                               :         0.10
        setup H (total, MT, IT)             :         0.08        0.08        0.01
        setup O (total, MT, IT)             :         0.01        0.01        0.00
      diagonalization                       :         0.06
    second-variational                      :         0.00
      setup (total, MT, IT)                 :         0.00        0.00        0.00
      diagonalization                       :         0.00
  total for charge and magnetization        :         0.58
    k-point summation (total, MT, IT)       :         0.00        0.00        0.00
    symmetrization                          :         0.00
  potential (total, XC, Ha)                 :         0.33        0.26        0.07
  density matrix setup                      :         0.00
 
+-------------------------+
| Iteration number :    3 |
+-------------------------+
 
New smearing width :   0.1307799772E-01
 
Energies :
 Fermi                       :     0.594246868502    
 sum of eigenvalues          :     -870.433111440    
 electron kinetic            :      1663.91623324    
   core kinetic              :      1442.21518412    
   valence kinetic           :      221.701049122    
 Coulomb                     :     -3045.94207541    
 Coulomb potential           :     -2444.42707250    
 nuclear-nuclear             :     -231.518672808    
 electron-nuclear            :     -3184.41973271    
 Hartree                     :      369.996330102    
 Madelung                    :     -1823.72853916    
 xc potential                :     -89.9222721801    
 exchange                    :     -66.6257386484    
 correlation                 :     -1.63035327202    
 total energy                :     -1450.28193409    
 
Density of states at Fermi energy :    30.44451966    
 (states/Hartree/unit cell)
Estimated band gap (eV) :   0.4248287286    
 from k-point      4 to k-point      4
Estimated direct band gap (eV) :   0.4248287286    
 at k-point      4
 
Charges :
 core                        :    14.00000000    
 core leakage                :   0.1212915989E-01
 valence                     :    22.00000000    
 interstitial                :    8.017466395    
 muffin-tins
  species :    1 (Ni)
   atom    1                 :    17.98966039    
  species :    2 (O)
   atom    1                 :    9.992873214    
 total in muffin-tins        :    27.98253360    
 total charge                :    36.00000000    
 
RMS change in effective potential (target) :    3.702998595     (  0.1000000000E-05)
Absolute change in total energy (target)   :    9.074592638     (  0.1000000000E-03)
 
Time (CPU seconds) :         5.56
 
iteration time (seconds)              :         1.74
  radial setup (linen, APW, radint)   :         0.00        0.00        0.00
  total for secular equation          :         0.16
  first-variational                   :         0.15
  setup                               :         0.09
        setup H (total, MT, IT)             :         0.08        0.08        0.00
        setup O (total, MT, IT)             :         0.01        0.01        0.00
      diagonalization                       :         0.06
    second-variational                      :         0.00
      setup (total, MT, IT)                 :         0.00        0.00        0.00
      diagonalization                       :         0.00
  total for charge and magnetization        :         0.59
    k-point summation (total, MT, IT)       :         0.00        0.00        0.00
    symmetrization                          :         0.00
  potential (total, XC, Ha)                 :         0.33        0.26        0.07
  density matrix setup                      :         0.00
 
+-------------------------+
| Iteration number :    4 |
+-------------------------+
 
New smearing width :   0.1253498308E-01
 
Energies :
 Fermi                       :     0.633560895862    
 sum of eigenvalues          :     -881.728653336    
 electron kinetic            :      1658.80308542    
   core kinetic              :      1449.62071951    
   valence kinetic           :      209.182365911    
 Coulomb                     :     -3057.03714777    
 Coulomb potential           :     -2450.16069294    
 nuclear-nuclear             :     -231.518672808    
 electron-nuclear            :     -3200.87625698    
 Hartree                     :      375.357782021    
 Madelung                    :     -1831.95680130    
 xc potential                :     -90.3710458189    
 exchange                    :     -66.9586162088    
 correlation                 :     -1.63597128845    
 total energy                :     -1466.82864984    
 
Density of states at Fermi energy :    29.39272810    
 (states/Hartree/unit cell)
Estimated band gap (eV) :   0.4319225364    
 from k-point      4 to k-point      4
Estimated direct band gap (eV) :   0.4319225364    
 at k-point      4
 
Charges :
 core                        :    14.00000000    
 core leakage                :   0.6372340306E-02
 valence                     :    22.00000000    
 interstitial                :    8.011675897    
 muffin-tins
  species :    1 (Ni)
   atom    1                 :    17.99549488    
  species :    2 (O)
   atom    1                 :    9.992829224    
 total in muffin-tins        :    27.98832410    
 total charge                :    36.00000000    
 
Wrote STATE.OUT
 
RMS change in effective potential (target) :    3.195184466     (  0.1000000000E-05)
Absolute change in total energy (target)   :    16.54671575     (  0.1000000000E-03)
 
Time (CPU seconds) :         6.53
 
iteration time (seconds)              :         1.72
  radial setup (linen, APW, radint)   :         0.00        0.00        0.00
  total for secular equation          :         0.16
  first-variational                   :         0.14
  setup                               :         0.09
        setup H (total, MT, IT)             :         0.08        0.08        0.00
        setup O (total, MT, IT)             :         0.01        0.01        0.00
      diagonalization                       :         0.05
    second-variational                      :         0.00
      setup (total, MT, IT)                 :         0.00        0.00        0.00
      diagonalization                       :         0.00
  total for charge and magnetization        :         0.58
    k-point summation (total, MT, IT)       :         0.00        0.00        0.00
    symmetrization                          :         0.00
  potential (total, XC, Ha)                 :         0.32        0.25        0.07
  density matrix setup                      :         0.00
 
+-------------------------+
| Iteration number :    5 |
+-------------------------+
 
New smearing width :   0.1203041345E-01
 
Energies :
 Fermi                       :     0.642200795432    
 sum of eigenvalues          :     -896.539720510    
 electron kinetic            :      1655.51412756    
   core kinetic              :      1450.26902320    
   valence kinetic           :      205.245104363    
 Coulomb                     :     -3100.79330175    
 Coulomb potential           :     -2459.84839720    
 nuclear-nuclear             :     -231.518672808    
 electron-nuclear            :     -3278.70086068    
 Hartree                     :      409.426231740    
 Madelung                    :     -1870.86910315    
 xc potential                :     -92.2054508648    
 exchange                    :     -68.3202048869    
 correlation                 :     -1.63802856814    
 total energy                :     -1515.23740765    
 
Density of states at Fermi energy :    610.2173753    
 (states/Hartree/unit cell)
Estimated band gap (eV) :   0.1232948543    
 from k-point      4 to k-point      6
Estimated direct band gap (eV) :   0.2279254547    
 at k-point      4
 
Charges :
 core                        :    14.00000000    
 core leakage                :   0.2735511430E-02
 valence                     :    22.00000000    
 interstitial                :    6.822165094    
 muffin-tins
  species :    1 (Ni)
   atom    1                 :    20.46441777    
  species :    2 (O)
   atom    1                 :    8.713417139    
 total in muffin-tins        :    29.17783491    
 total charge                :    36.00000000    
 
RMS change in effective potential (target) :    1.837457927     (  0.1000000000E-05)
Absolute change in total energy (target)   :    48.40875780     (  0.1000000000E-03)
 
Time (CPU seconds) :         7.72
 
iteration time (seconds)              :         1.95
  radial setup (linen, APW, radint)   :         0.00        0.00        0.00
  total for secular equation          :         0.15
  first-variational                   :         0.14
  setup                               :         0.09
        setup H (total, MT, IT)             :         0.08        0.08        0.00
        setup O (total, MT, IT)             :         0.01        0.01        0.00
      diagonalization                       :         0.05
    second-variational                      :         0.00
      setup (total, MT, IT)                 :         0.00        0.00        0.00
      diagonalization                       :         0.00
  total for charge and magnetization        :         0.80
    k-point summation (total, MT, IT)       :         0.00        0.00        0.00
    symmetrization                          :         0.00
  potential (total, XC, Ha)                 :         0.32        0.26        0.07
  density matrix setup                      :         0.00
 
+-------------------------+
| Iteration number :    6 |
+-------------------------+
 
New smearing width :   0.1103968481E-01
 
Energies :
 Fermi                       :     0.568712430203    
 sum of eigenvalues          :     -916.392430472    
 electron kinetic            :      1568.94046762    
   core kinetic              :      1440.39806545    
   valence kinetic           :      128.542402167    
 Coulomb                     :     -3164.99863901    
 Coulomb potential           :     -2386.22503226    
 nuclear-nuclear             :     -231.518672808    
 electron-nuclear            :     -3480.73490014    
 Hartree                     :      547.254933939    
 Madelung                    :     -1971.88612288    
 xc potential                :     -99.1078658234    
 exchange                    :     -73.4015049337    
 correlation                 :     -1.74974104511    
 total energy                :     -1671.20941737    
 
Density of states at Fermi energy :    103.6532046    
 (states/Hartree/unit cell)
Estimated band gap (eV) :   0.4839453457    
 from k-point      5 to k-point      3
Estimated direct band gap (eV) :   0.4839453457    
 at k-point      5
 
Charges :
 core                        :    14.00000000    
 core leakage                :   0.1568177805E-02
 valence                     :    22.00000000    
 interstitial                :    5.269065439    
 muffin-tins
  species :    1 (Ni)
   atom    1                 :    27.99765843    
  species :    2 (O)
   atom    1                 :    2.733276133    
 total in muffin-tins        :    30.73093456    
 total charge                :    36.00000000    
 
Wrote STATE.OUT
 
RMS change in effective potential (target) :    5.487222048     (  0.1000000000E-05)
Absolute change in total energy (target)   :    155.9720097     (  0.1000000000E-03)
 
Time (CPU seconds) :         8.73
 
iteration time (seconds)              :         1.76
  radial setup (linen, APW, radint)   :         0.00        0.00        0.00
  total for secular equation          :         0.15
  first-variational                   :         0.14
  setup                               :         0.09
        setup H (total, MT, IT)             :         0.08        0.08        0.01
        setup O (total, MT, IT)             :         0.01        0.01        0.00
      diagonalization                       :         0.05
    second-variational                      :         0.00
      setup (total, MT, IT)                 :         0.00        0.00        0.00
      diagonalization                       :         0.00
  total for charge and magnetization        :         0.62
    k-point summation (total, MT, IT)       :         0.00        0.00        0.00
    symmetrization                          :         0.00
  potential (total, XC, Ha)                 :         0.32        0.26        0.07
  density matrix setup                      :         0.00
 
+-------------------------+
| Iteration number :    7 |
+-------------------------+
 
New smearing width :   0.1344591333E-01
 
Energies :
 Fermi                       :     0.493082088428    
 sum of eigenvalues          :     -912.133855292    
 electron kinetic            :      1583.29337497    
   core kinetic              :      1437.94094418    
   valence kinetic           :      145.352430794    
 Coulomb                     :     -3170.75494466    
 Coulomb potential           :     -2396.03684065    
 nuclear-nuclear             :     -231.518672808    
 electron-nuclear            :     -3482.43570306    
 Hartree                     :      543.199431205    
 Madelung                    :     -1972.73652434    
 xc potential                :     -99.3903896166    
 exchange                    :     -73.6411523671    
 correlation                 :     -1.72702697594    
 total energy                :     -1662.82974903    
 
Density of states at Fermi energy :    21.98122529    
 (states/Hartree/unit cell)
Estimated band gap (eV) :   0.4418591609    
 from k-point      6 to k-point      6
Estimated direct band gap (eV) :   0.4418591609    
 at k-point      6
 
Charges :
 core                        :    14.00000000    
 core leakage                :   0.1752600486E-02
 valence                     :    22.00000000    
 interstitial                :    4.006449984    
 muffin-tins
  species :    1 (Ni)
   atom    1                 :    27.99789507    
  species :    2 (O)
   atom    1                 :    3.995654950    
 total in muffin-tins        :    31.99355002    
 total charge                :    36.00000000    
 
RMS change in effective potential (target) :    1.283360874     (  0.1000000000E-05)
Absolute change in total energy (target)   :    8.379668343     (  0.1000000000E-03)
 
Time (CPU seconds) :         9.73
 
iteration time (seconds)              :         1.76
  radial setup (linen, APW, radint)   :         0.00        0.00        0.00
  total for secular equation          :         0.16
  first-variational                   :         0.15
  setup                               :         0.09
        setup H (total, MT, IT)             :         0.08        0.08        0.00
        setup O (total, MT, IT)             :         0.01        0.01        0.00
      diagonalization                       :         0.05
    second-variational                      :         0.00
      setup (total, MT, IT)                 :         0.00        0.00        0.00
      diagonalization                       :         0.00
  total for charge and magnetization        :         0.60
    k-point summation (total, MT, IT)       :         0.00        0.00        0.00
    symmetrization                          :         0.00
  potential (total, XC, Ha)                 :         0.32        0.26        0.07
  density matrix setup                      :         0.00
 
+-------------------------+
| Iteration number :    8 |
+-------------------------+
 
New smearing width :   0.4573979306E-02
 
Energies :
 Fermi                       :     0.479736471600    
 sum of eigenvalues          :     -904.549969581    
 electron kinetic            :      1591.40030651    
   core kinetic              :      1436.09473576    
   valence kinetic           :      155.305570754    
 Coulomb                     :     -3164.41397220    
 Coulomb potential           :     -2397.13378347    
 nuclear-nuclear             :     -231.518672808    
 electron-nuclear            :     -3468.65681531    
 Hartree                     :      535.761515919    
 Madelung                    :     -1965.84708046    
 xc potential                :     -98.8164926195    
 exchange                    :     -73.2138868607    
 correlation                 :     -1.72263324554    
 total energy                :     -1647.95018579    
 
Density of states at Fermi energy :    36.85056074    
 (states/Hartree/unit cell)
Estimated band gap (eV) :   0.4349456843    
 from k-point      6 to k-point      6
Estimated direct band gap (eV) :   0.4349456843    
 at k-point      6
 
Charges :
 core                        :    14.00000000    
 core leakage                :   0.2152994632E-02
 valence                     :    22.00000000    
 interstitial                :    4.004605164    
 muffin-tins
  species :    1 (Ni)
   atom    1                 :    27.99743632    
  species :    2 (O)
   atom    1                 :    3.997958516    
 total in muffin-tins        :    31.99539484    
 total charge                :    36.00000000    
 
Wrote STATE.OUT
 
RMS change in effective potential (target) :    1.073720162     (  0.1000000000E-05)
Absolute change in total energy (target)   :    14.87956324     (  0.1000000000E-03)
 
Time (CPU seconds) :        10.71
 
iteration time (seconds)              :         1.74
  radial setup (linen, APW, radint)   :         0.00        0.00        0.00
  total for secular equation          :         0.15
  first-variational                   :         0.14
  setup                               :         0.09
        setup H (total, MT, IT)             :         0.08        0.08        0.00
        setup O (total, MT, IT)             :         0.01        0.01        0.00
      diagonalization                       :         0.05
    second-variational                      :         0.00
      setup (total, MT, IT)                 :         0.00        0.00        0.00
      diagonalization                       :         0.00
  total for charge and magnetization        :         0.59
    k-point summation (total, MT, IT)       :         0.00        0.00        0.00
    symmetrization                          :         0.00
  potential (total, XC, Ha)                 :         0.32        0.25        0.07
  density matrix setup                      :         0.00
 
+-------------------------+
| Iteration number :    9 |
+-------------------------+
 
New smearing width :   0.5111766599E-02
 
Energies :
 Fermi                       :     0.676205944566    
 sum of eigenvalues          :     -896.443002467    
 electron kinetic            :      1652.22034694    
   core kinetic              :      1443.30487166    
   valence kinetic           :      208.915475279    
 Coulomb                     :     -3076.08006784    
 Coulomb potential           :     -2457.34532395    
 nuclear-nuclear             :     -231.518672808    
 electron-nuclear            :     -3231.77746612    
 Hartree                     :      387.216071084    
 Madelung                    :     -1847.40740587    
 xc potential                :     -91.3180254623    
 exchange                    :     -67.6654228107    
 correlation                 :     -1.64120576994    
 total energy                :     -1493.16634948    
 
Density of states at Fermi energy :    353.1706524    
 (states/Hartree/unit cell)
Estimated band gap (eV) :   0.8618350101    
 from k-point      6 to k-point      5
Estimated direct band gap (eV) :    1.027544340    
 at k-point      6
 
Charges :
 core                        :    14.00000000    
 core leakage                :   0.2790236743E-02
 valence                     :    22.00000000    
 interstitial                :    7.567083866    
 muffin-tins
  species :    1 (Ni)
   atom    1                 :    18.44003767    
  species :    2 (O)
   atom    1                 :    9.992878466    
 total in muffin-tins        :    28.43291613    
 total charge                :    36.00000000    
 
RMS change in effective potential (target) :    2.386821670     (  0.1000000000E-05)
Absolute change in total energy (target)   :    154.7838363     (  0.1000000000E-03)
 
Time (CPU seconds) :        11.91
 
iteration time (seconds)              :         1.98
  radial setup (linen, APW, radint)   :         0.00        0.00        0.00
  total for secular equation          :         0.16
  first-variational                   :         0.15
  setup                               :         0.10
        setup H (total, MT, IT)             :         0.08        0.08        0.00
        setup O (total, MT, IT)             :         0.01        0.01        0.00
      diagonalization                       :         0.05
    second-variational                      :         0.00
      setup (total, MT, IT)                 :         0.00        0.00        0.00
      diagonalization                       :         0.00
  total for charge and magnetization        :         0.80
    k-point summation (total, MT, IT)       :         0.00        0.00        0.00
    symmetrization                          :         0.00
  potential (total, XC, Ha)                 :         0.33        0.26        0.07
  density matrix setup                      :         0.00
 
+-------------------------+
| Iteration number :   10 |
+-------------------------+
 
New smearing width :   0.1291710062E-01
 
Energies :
 Fermi                       :     0.479807016941    
 sum of eigenvalues          :     -902.439573753    
 electron kinetic            :      1595.51756916    
   core kinetic              :      1439.26260454    
   valence kinetic           :      156.254964621    
 Coulomb                     :     -3161.66736592    
 Coulomb potential           :     -2399.51896826    
 nuclear-nuclear             :     -231.518672808    
 electron-nuclear            :     -3460.77841797    
 Hartree                     :      530.629724856    
 Madelung                    :     -1961.90788179    
 xc potential                :     -98.4381746557    
 exchange                    :     -72.9317716358    
 correlation                 :     -1.71965687616    
 total energy                :     -1640.80122527    
 
Density of states at Fermi energy :    58.76791509    
 (states/Hartree/unit cell)
Estimated band gap (eV) :    1.169810472    
 from k-point      6 to k-point      2
Estimated direct band gap (eV) :    1.577026798    
 at k-point      2
 
Charges :
 core                        :    14.00000000    
 core leakage                :   0.2290957539E-02
 valence                     :    22.00000000    
 interstitial                :    4.159694815    
 muffin-tins
  species :    1 (Ni)
   atom    1                 :    27.84234690    
  species :    2 (O)
   atom    1                 :    3.997958284    
 total in muffin-tins        :    31.84030519    
 total charge                :    36.00000000    
 
Wrote STATE.OUT
 
RMS change in effective potential (target) :   0.9686829917     (  0.1000000000E-05)
Absolute change in total energy (target)   :    147.6348758     (  0.1000000000E-03)
 
Time (CPU seconds) :        12.91
 
iteration time (seconds)              :         1.76
  radial setup (linen, APW, radint)   :         0.00        0.00        0.00
  total for secular equation          :         0.16
  first-variational                   :         0.15
  setup                               :         0.09
        setup H (total, MT, IT)             :         0.08        0.08        0.00
        setup O (total, MT, IT)             :         0.01        0.01        0.00
      diagonalization                       :         0.05
    second-variational                      :         0.00
      setup (total, MT, IT)                 :         0.00        0.00        0.00
      diagonalization                       :         0.00
  total for charge and magnetization        :         0.61
    k-point summation (total, MT, IT)       :         0.00        0.00        0.00
    symmetrization                          :         0.00
  potential (total, XC, Ha)                 :         0.32        0.26        0.07
  density matrix setup                      :         0.00
 
+-------------------------+
| Iteration number :   11 |
+-------------------------+
 
New smearing width :   0.4493756347E-02
 
Energies :
 Fermi                       :     0.552126229188    
 sum of eigenvalues          :     -899.826742390    
 electron kinetic            :      1610.35120990    
   core kinetic              :      1439.08956680    
   valence kinetic           :      171.261643101    
 Coulomb                     :     -3150.20421964    
 Coulomb potential           :     -2413.57905720    
 nuclear-nuclear             :     -231.518672808    
 electron-nuclear            :     -3423.79203646    
 Hartree                     :      505.106489628    
 Madelung                    :     -1943.41469104    
 xc potential                :     -96.5988950819    
 exchange                    :     -71.5576897041    
 correlation                 :     -1.70645416814    
 total energy                :     -1613.11715362    
 
Density of states at Fermi energy :    683.5357408    
 (states/Hartree/unit cell)
Estimated band gap (eV) :   0.9248944449E-01
 from k-point      1 to k-point      7
Estimated direct band gap (eV) :   0.9248944449E-01
 at k-point      7
 
Charges :
 core                        :    14.00000000    
 core leakage                :   0.2472826618E-02
 valence                     :    22.00000000    
 interstitial                :    5.330584344    
 muffin-tins
  species :    1 (Ni)
   atom    1                 :    26.67147325    
  species :    2 (O)
   atom    1                 :    3.997942406    
 total in muffin-tins        :    30.66941566    
 total charge                :    36.00000000    
 
RMS change in effective potential (target) :   0.6452844908     (  0.1000000000E-05)
Absolute change in total energy (target)   :    27.68407166     (  0.1000000000E-03)
 
Time (CPU seconds) :        13.91
 
iteration time (seconds)              :         1.76
  radial setup (linen, APW, radint)   :         0.00        0.00        0.00
  total for secular equation          :         0.15
  first-variational                   :         0.14
  setup                               :         0.09
        setup H (total, MT, IT)             :         0.08        0.08        0.00
        setup O (total, MT, IT)             :         0.01        0.01        0.00
      diagonalization                       :         0.05
    second-variational                      :         0.00
      setup (total, MT, IT)                 :         0.00        0.00        0.00
      diagonalization                       :         0.00
  total for charge and magnetization        :         0.62
    k-point summation (total, MT, IT)       :         0.00        0.00        0.00
    symmetrization                          :         0.00
  potential (total, XC, Ha)                 :         0.32        0.25        0.07
  density matrix setup                      :         0.00
 
+-------------------------+
| Iteration number :   12 |
+-------------------------+
 
New smearing width :   0.8873877764E-02
 
Energies :
 Fermi                       :     0.635949138429    
 sum of eigenvalues          :     -898.015713187    
 electron kinetic            :      1652.22551580    
   core kinetic              :      1443.03413071    
   valence kinetic           :      209.191385089    
 Coulomb                     :     -3092.62388288    
 Coulomb potential           :     -2457.70899434    
 nuclear-nuclear             :     -231.518672808    
 electron-nuclear            :     -3264.50142580    
 Hartree                     :      403.396215730    
 Madelung                    :     -1863.76938571    
 xc potential                :     -92.5322346488    
 exchange                    :     -68.5765663847    
 correlation                 :     -1.63818802490    
 total energy                :     -1510.61312148    
 
Density of states at Fermi energy :    407.1807232    
 (states/Hartree/unit cell)
Estimated band gap (eV) :   0.7147855520    
 from k-point      7 to k-point      4
Estimated direct band gap (eV) :   0.7586545658    
 at k-point      7
 
Charges :
 core                        :    14.00000000    
 core leakage                :   0.2666190166E-02
 valence                     :    22.00000000    
 interstitial                :    6.435244397    
 muffin-tins
  species :    1 (Ni)
   atom    1                 :    19.57186572    
  species :    2 (O)
   atom    1                 :    9.992889888    
 total in muffin-tins        :    29.56475560    
 total charge                :    36.00000000    
 
Wrote STATE.OUT
 
RMS change in effective potential (target) :    2.073671728     (  0.1000000000E-05)
Absolute change in total energy (target)   :    102.5040321     (  0.1000000000E-03)
 
Time (CPU seconds) :        15.09
 
iteration time (seconds)              :         1.93
  radial setup (linen, APW, radint)   :         0.00        0.00        0.00
  total for secular equation          :         0.15
  first-variational                   :         0.14
  setup                               :         0.09
        setup H (total, MT, IT)             :         0.08        0.08        0.00
        setup O (total, MT, IT)             :         0.01        0.01        0.00
      diagonalization                       :         0.05
    second-variational                      :         0.00
      setup (total, MT, IT)                 :         0.00        0.00        0.00
      diagonalization                       :         0.00
  total for charge and magnetization        :         0.79
    k-point summation (total, MT, IT)       :         0.00        0.00        0.00
    symmetrization                          :         0.00
  potential (total, XC, Ha)                 :         0.32        0.26        0.07
  density matrix setup                      :         0.00
 
+-------------------------+
| Iteration number :   13 |
+-------------------------+
 
New smearing width :   0.1184228716E-01
 
Energies :
 Fermi                       :     0.475315062828    
 sum of eigenvalues          :     -903.020590565    
 electron kinetic            :      1593.97041306    
   core kinetic              :      1439.38245450    
   valence kinetic           :      154.587958558    
 Coulomb                     :     -3163.15783112    
 Coulomb potential           :     -2398.35378899    
 nuclear-nuclear             :     -231.518672808    
 electron-nuclear            :     -3464.92452764    
 Hartree                     :      533.285369324    
 Madelung                    :     -1963.98093663    
 xc potential                :     -98.6372146367    
 exchange                    :     -73.0803839194    
 correlation                 :     -1.72095302467    
 total energy                :     -1643.98875500    
 
Density of states at Fermi energy :    41.52812458    
 (states/Hartree/unit cell)
Estimated band gap (eV) :   0.4327097875    
 from k-point      6 to k-point      6
Estimated direct band gap (eV) :   0.4327097875    
 at k-point      6
 
Charges :
 core                        :    14.00000000    
 core leakage                :   0.2265625797E-02
 valence                     :    22.00000000    
 interstitial                :    4.063953177    
 muffin-tins
  species :    1 (Ni)
   atom    1                 :    27.93808901    
  species :    2 (O)
   atom    1                 :    3.997957810    
 total in muffin-tins        :    31.93604682    
 total charge                :    36.00000000    
 
RMS change in effective potential (target) :   0.9941203688     (  0.1000000000E-05)
Absolute change in total energy (target)   :    133.3756335     (  0.1000000000E-03)
 
Time (CPU seconds) :        16.08
 
iteration time (seconds)              :         1.74
  radial setup (linen, APW, radint)   :         0.00        0.00        0.00
  total for secular equation          :         0.15
  first-variational                   :         0.14
  setup                               :         0.09
        setup H (total, MT, IT)             :         0.08        0.08        0.00
        setup O (total, MT, IT)             :         0.01        0.01        0.00
      diagonalization                       :         0.05
    second-variational                      :         0.00
      setup (total, MT, IT)                 :         0.00        0.00        0.00
      diagonalization                       :         0.00
  total for charge and magnetization        :         0.60
    k-point summation (total, MT, IT)       :         0.00        0.00        0.00
    symmetrization                          :         0.00
  potential (total, XC, Ha)                 :         0.32        0.26        0.07
  density matrix setup                      :         0.00
 
+-------------------------+
| Iteration number :   14 |
+-------------------------+
 
New smearing width :   0.4057994474E-02
 
Energies :
 Fermi                       :     0.549918143214    
 sum of eigenvalues          :     -900.243006374    
 electron kinetic            :      1609.78757609    
   core kinetic              :      1439.17164117    
   valence kinetic           :      170.615934919    
 Coulomb                     :     -3151.04940749    
 Coulomb potential           :     -2413.34799118    
 nuclear-nuclear             :     -231.518672808    
 electron-nuclear            :     -3425.71347818    
 Hartree                     :      506.182743497    
 Madelung                    :     -1944.37541190    
 xc potential                :     -96.6825912821    
 exchange                    :     -71.6199172197    
 correlation                 :     -1.70685941662    
 total energy                :     -1614.58860803    
 
Density of states at Fermi energy :    741.8329940    
 (states/Hartree/unit cell)
Estimated band gap (eV) :   0.1634081825    
 from k-point      4 to k-point      7
Estimated direct band gap (eV) :   0.1634081825    
 at k-point      7
 
Charges :
 core                        :    14.00000000    
 core leakage                :   0.2455266619E-02
 valence                     :    22.00000000    
 interstitial                :    5.300243192    
 muffin-tins
  species :    1 (Ni)
   atom    1                 :    26.70181531    
  species :    2 (O)
   atom    1                 :    3.997941501    
 total in muffin-tins        :    30.69975681    
 total charge                :    36.00000000    
 
Wrote STATE.OUT
 
RMS change in effective potential (target) :   0.6386950032     (  0.1000000000E-05)
Absolute change in total energy (target)   :    29.40014697     (  0.1000000000E-03)
 
Time (CPU seconds) :        17.08
 
iteration time (seconds)              :         1.76
  radial setup (linen, APW, radint)   :         0.00        0.00        0.00
  total for secular equation          :         0.15
  first-variational                   :         0.14
  setup                               :         0.09
        setup H (total, MT, IT)             :         0.08        0.08        0.00
        setup O (total, MT, IT)             :         0.01        0.01        0.00
      diagonalization                       :         0.05
    second-variational                      :         0.00
      setup (total, MT, IT)                 :         0.00        0.00        0.00
      diagonalization                       :         0.00
  total for charge and magnetization        :         0.62
    k-point summation (total, MT, IT)       :         0.00        0.00        0.00
    symmetrization                          :         0.00
  potential (total, XC, Ha)                 :         0.32        0.26        0.07
  density matrix setup                      :         0.00
 
+-------------------------+
| Iteration number :   15 |
+-------------------------+
 
New smearing width :   0.8771219852E-02
 
Energies :
 Fermi                       :     0.637109537351    
 sum of eigenvalues          :     -898.442344667    
 electron kinetic            :      1651.96663274    
   core kinetic              :      1443.16500479    
   valence kinetic           :      208.801627949    
 Coulomb                     :     -3092.72529988    
 Coulomb potential           :     -2457.87011506    
 nuclear-nuclear             :     -231.518672808    
 electron-nuclear            :     -3264.54313909    
 Hartree                     :      403.336512013    
 Madelung                    :     -1863.79024235    
 xc potential                :     -92.5388623418    
 exchange                    :     -68.5814175536    
 correlation                 :     -1.63817380837    
 total energy                :     -1510.97825851    
 
Density of states at Fermi energy :    411.0600471    
 (states/Hartree/unit cell)
Estimated band gap (eV) :   0.7213122706    
 from k-point      7 to k-point      4
Estimated direct band gap (eV) :   0.7656155872    
 at k-point      7
 
Charges :
 core                        :    14.00000000    
 core leakage                :   0.2656574257E-02
 valence                     :    22.00000000    
 interstitial                :    6.454836320    
 muffin-tins
  species :    1 (Ni)
   atom    1                 :    19.55227847    
  species :    2 (O)
   atom    1                 :    9.992885208    
 total in muffin-tins        :    29.54516368    
 total charge                :    36.00000000    
 
RMS change in effective potential (target) :    2.065650298     (  0.1000000000E-05)
Absolute change in total energy (target)   :    103.6103495     (  0.1000000000E-03)
 
Time (CPU seconds) :        18.27
 
iteration time (seconds)              :         1.94
  radial setup (linen, APW, radint)   :         0.00        0.00        0.00
  total for secular equation          :         0.16
  first-variational                   :         0.15
  setup                               :         0.10
        setup H (total, MT, IT)             :         0.08        0.08        0.00
        setup O (total, MT, IT)             :         0.01        0.01        0.01
      diagonalization                       :         0.05
    second-variational                      :         0.00
      setup (total, MT, IT)                 :         0.00        0.00        0.00
      diagonalization                       :         0.00
  total for charge and magnetization        :         0.79
    k-point summation (total, MT, IT)       :         0.00        0.00        0.00
    symmetrization                          :         0.00
  potential (total, XC, Ha)                 :         0.32        0.26        0.07
  density matrix setup                      :         0.00
 
+-------------------------+
| Iteration number :   16 |
+-------------------------+
 
New smearing width :   0.1186144930E-01
 
Energies :
 Fermi                       :     0.475560999471    
 sum of eigenvalues          :     -903.285740905    
 electron kinetic            :      1593.86947688    
   core kinetic              :      1439.49380095    
   valence kinetic           :      154.375675930    
 Coulomb                     :     -3163.53177960    
 Coulomb potential           :     -2398.49663724    
 nuclear-nuclear             :     -231.518672808    
 electron-nuclear            :     -3465.52957634    
 Hartree                     :      533.516469546    
 Madelung                    :     -1964.28346098    
 xc potential                :     -98.6585805423    
 exchange                    :     -73.0963250732    
 correlation                 :     -1.72094674882    
 total energy                :     -1644.47957454    
 
Density of states at Fermi energy :    43.28029270    
 (states/Hartree/unit cell)
Estimated band gap (eV) :   0.4333541711    
 from k-point      6 to k-point      6
Estimated direct band gap (eV) :   0.4333541711    
 at k-point      6
 
Charges :
 core                        :    14.00000000    
 core leakage                :   0.2256954135E-02
 valence                     :    22.00000000    
 interstitial                :    4.070590573    
 muffin-tins
  species :    1 (Ni)
   atom    1                 :    27.93145297    
  species :    2 (O)
   atom    1                 :    3.997956453    
 total in muffin-tins        :    31.92940943    
 total charge                :    36.00000000    
 
Wrote STATE.OUT
 
RMS change in effective potential (target) :   0.9881036589     (  0.1000000000E-05)
Absolute change in total energy (target)   :    133.5013160     (  0.1000000000E-03)
 
Time (CPU seconds) :        19.26
 
iteration time (seconds)              :         1.74
  radial setup (linen, APW, radint)   :         0.00        0.00        0.00
  total for secular equation          :         0.15
  first-variational                   :         0.14
  setup                               :         0.09
        setup H (total, MT, IT)             :         0.08        0.08        0.00
        setup O (total, MT, IT)             :         0.01        0.01        0.00
      diagonalization                       :         0.05
    second-variational                      :         0.00
      setup (total, MT, IT)                 :         0.00        0.00        0.00
      diagonalization                       :         0.00
  total for charge and magnetization        :         0.60
    k-point summation (total, MT, IT)       :         0.00        0.00        0.00
    symmetrization                          :         0.00
  potential (total, XC, Ha)                 :         0.32        0.25        0.07
  density matrix setup                      :         0.00
 
+-------------------------+
| Iteration number :   17 |
+-------------------------+
 
New smearing width :   0.4083939148E-02
 
Energies :
 Fermi                       :     0.550671282295    
 sum of eigenvalues          :     -900.483591885    
 electron kinetic            :      1609.70171949    
   core kinetic              :      1439.25625771    
   valence kinetic           :      170.445461782    
 Coulomb                     :     -3151.38048930    
 Coulomb potential           :     -2413.48369792    
 nuclear-nuclear             :     -231.518672808    
 electron-nuclear            :     -3426.23993507    
 Hartree                     :      506.378118573    
 Madelung                    :     -1944.63864034    
 xc potential                :     -96.7016134527    
 exchange                    :     -71.6339746780    
 correlation                 :     -1.70686811495    
 total energy                :     -1615.01961261    
 
Density of states at Fermi energy :    741.5488990    
 (states/Hartree/unit cell)
Estimated band gap (eV) :   0.1483120839    
 from k-point      2 to k-point      7
Estimated direct band gap (eV) :   0.1483120839    
 at k-point      7
 
Charges :
 core                        :    14.00000000    
 core leakage                :   0.2446900724E-02
 valence                     :    22.00000000    
 interstitial                :    5.305648385    
 muffin-tins
  species :    1 (Ni)
   atom    1                 :    26.69641178    
  species :    2 (O)
   atom    1                 :    3.997939833    
 total in muffin-tins        :    30.69435162    
 total charge                :    36.00000000    
 
RMS change in effective potential (target) :   0.6261054177     (  0.1000000000E-05)
Absolute change in total energy (target)   :    29.45996193     (  0.1000000000E-03)
 
Time (CPU seconds) :        20.26
 
iteration time (seconds)              :         1.75
  radial setup (linen, APW, radint)   :         0.00        0.00        0.00
  total for secular equation          :         0.15
  first-variational                   :         0.14
  setup                               :         0.09
        setup H (total, MT, IT)             :         0.08        0.07        0.01
        setup O (total, MT, IT)             :         0.01        0.01        0.00
      diagonalization                       :         0.05
    second-variational                      :         0.00
      setup (total, MT, IT)                 :         0.00        0.00        0.00
      diagonalization                       :         0.00
  total for charge and magnetization        :         0.62
    k-point summation (total, MT, IT)       :         0.00        0.00        0.00
    symmetrization                          :         0.00
  potential (total, XC, Ha)                 :         0.32        0.26        0.07
  density matrix setup                      :         0.00
 
+-------------------------+
| Iteration number :   18 |
+-------------------------+
 
New smearing width :   0.8802963683E-02
 
Energies :
 Fermi                       :     0.638039615600    
 sum of eigenvalues          :     -898.765942289    
 electron kinetic            :      1651.76309974    
   core kinetic              :      1443.26243987    
   valence kinetic           :      208.500659864    
 Coulomb                     :     -3092.70761923    
 Coulomb potential           :     -2457.99206447    
 nuclear-nuclear             :     -231.518672808    
 electron-nuclear            :     -3264.38582837    
 Hartree                     :      403.196881946    
 Madelung                    :     -1863.71158699    
 xc potential                :     -92.5369775542    
 exchange                    :     -68.5799313087    
 correlation                 :     -1.63817152079    
 total energy                :     -1511.16262232    
 
Density of states at Fermi energy :    408.4592284    
 (states/Hartree/unit cell)
Estimated band gap (eV) :   0.7255552611    
 from k-point      7 to k-point      4
Estimated direct band gap (eV) :   0.7697104688    
 at k-point      7
 
Charges :
 core                        :    14.00000000    
 core leakage                :   0.2649443835E-02
 valence                     :    22.00000000    
 interstitial                :    6.476232407    
 muffin-tins
  species :    1 (Ni)
   atom    1                 :    19.53088637    
  species :    2 (O)
   atom    1                 :    9.992881228    
 total in muffin-tins        :    29.52376759    
 total charge                :    36.00000000    
 
Wrote STATE.OUT
 
RMS change in effective potential (target) :    2.073891781     (  0.1000000000E-05)
Absolute change in total energy (target)   :    103.8569903     (  0.1000000000E-03)
 
Time (CPU seconds) :        21.44
 
iteration time (seconds)              :         1.93
  radial setup (linen, APW, radint)   :         0.00        0.00        0.00
  total for secular equation          :         0.15
  first-variational                   :         0.14
  setup                               :         0.09
        setup H (total, MT, IT)             :         0.08        0.08        0.00
        setup O (total, MT, IT)             :         0.01        0.01        0.00
      diagonalization                       :         0.05
    second-variational                      :         0.00
      setup (total, MT, IT)                 :         0.00        0.00        0.00
      diagonalization                       :         0.00
  total for charge and magnetization        :         0.79
    k-point summation (total, MT, IT)       :         0.00        0.00        0.00
    symmetrization                          :         0.00
  potential (total, XC, Ha)                 :         0.32        0.26        0.07
  density matrix setup                      :         0.00
 
+-------------------------+
| Iteration number :   19 |
+-------------------------+
 
New smearing width :   0.1187959318E-01
 
Energies :
 Fermi                       :     0.475765315611    
 sum of eigenvalues          :     -903.486827911    
 electron kinetic            :      1593.77769148    
   core kinetic              :      1439.57342976    
   valence kinetic           :      154.204261716    
 Coulomb                     :     -3163.81750059    
 Coulomb potential           :     -2398.58837554    
 nuclear-nuclear             :     -231.518672808    
 electron-nuclear            :     -3466.00928003    
 Hartree                     :      533.710452243    
 Madelung                    :     -1964.52331282    
 xc potential                :     -98.6761438444    
 exchange                    :     -73.1094283613    
 correlation                 :     -1.72095518108    
 total energy                :     -1644.87019266    
 
Density of states at Fermi energy :    44.28549574    
 (states/Hartree/unit cell)
Estimated band gap (eV) :   0.4342512248    
 from k-point      6 to k-point      6
Estimated direct band gap (eV) :   0.4342512248    
 at k-point      6
 
Charges :
 core                        :    14.00000000    
 core leakage                :   0.2250106485E-02
 valence                     :    22.00000000    
 interstitial                :    4.074605409    
 muffin-tins
  species :    1 (Ni)
   atom    1                 :    27.92743914    
  species :    2 (O)
   atom    1                 :    3.997955449    
 total in muffin-tins        :    31.92539459    
 total charge                :    36.00000000    
 
RMS change in effective potential (target) :   0.9836758194     (  0.1000000000E-05)
Absolute change in total energy (target)   :    133.7075703     (  0.1000000000E-03)
 
Time (CPU seconds) :        22.43
 
iteration time (seconds)              :         1.74
  radial setup (linen, APW, radint)   :         0.00        0.00        0.00
  total for secular equation          :         0.15
  first-variational                   :         0.14
  setup                               :         0.09
        setup H (total, MT, IT)             :         0.08        0.08        0.00
        setup O (total, MT, IT)             :         0.01        0.01        0.00
      diagonalization                       :         0.05
    second-variational                      :         0.00
      setup (total, MT, IT)                 :         0.00        0.00        0.00
      diagonalization                       :         0.00
  total for charge and magnetization        :         0.60
    k-point summation (total, MT, IT)       :         0.00        0.00        0.00
    symmetrization                          :         0.00
  potential (total, XC, Ha)                 :         0.32        0.25        0.07
  density matrix setup                      :         0.00
 
+-------------------------+
| Iteration number :   20 |
+-------------------------+
 
New smearing width :   0.4100926470E-02
 
Energies :
 Fermi                       :     0.551221976108    
 sum of eigenvalues          :     -900.665019192    
 electron kinetic            :      1609.63319053    
   core kinetic              :      1439.31646511    
   valence kinetic           :      170.316725422    
 Coulomb                     :     -3151.62658553    
 Coulomb potential           :     -2413.58224719    
 nuclear-nuclear             :     -231.518672808    
 electron-nuclear            :     -3426.63357826    
 Hartree                     :      506.525665537    
 Madelung                    :     -1944.83546194    
 xc potential                :     -96.7159625368    
 exchange                    :     -71.6446096967    
 correlation                 :     -1.70687523655    
 total energy                :     -1615.34487993    
 
Density of states at Fermi energy :    741.2762845    
 (states/Hartree/unit cell)
Estimated band gap (eV) :   0.1383781287    
 from k-point      3 to k-point      7
Estimated direct band gap (eV) :   0.1383781287    
 at k-point      7
 
Charges :
 core                        :    14.00000000    
 core leakage                :   0.2440334219E-02
 valence                     :    22.00000000    
 interstitial                :    5.309651430    
 muffin-tins
  species :    1 (Ni)
   atom    1                 :    26.69240994    
  species :    2 (O)
   atom    1                 :    3.997938631    
 total in muffin-tins        :    30.69034857    
 total charge                :    36.00000000    
 
Wrote STATE.OUT
 
RMS change in effective potential (target) :   0.6162126990     (  0.1000000000E-05)
Absolute change in total energy (target)   :    29.52531273     (  0.1000000000E-03)
 
Time (CPU seconds) :        23.43
 
iteration time (seconds)              :         1.76
  radial setup (linen, APW, radint)   :         0.00        0.00        0.00
  total for secular equation          :         0.15
  first-variational                   :         0.14
  setup                               :         0.09
        setup H (total, MT, IT)             :         0.08        0.08        0.00
        setup O (total, MT, IT)             :         0.01        0.01        0.00
      diagonalization                       :         0.05
    second-variational                      :         0.00
      setup (total, MT, IT)                 :         0.00        0.00        0.00
      diagonalization                       :         0.00
  total for charge and magnetization        :         0.62
    k-point summation (total, MT, IT)       :         0.00        0.00        0.00
    symmetrization                          :         0.00
  potential (total, XC, Ha)                 :         0.32        0.25        0.07
  density matrix setup                      :         0.00
 
+-------------------------+
| Iteration number :   21 |
+-------------------------+
 
New smearing width :   0.8824628212E-02
 
Energies :
 Fermi                       :     0.638732882971    
 sum of eigenvalues          :     -899.014306784    
 electron kinetic            :      1651.60213187    
   core kinetic              :      1443.33251913    
   valence kinetic           :      208.269612740    
 Coulomb                     :     -3092.69601289    
 Coulomb potential           :     -2458.08032350    
 nuclear-nuclear             :     -231.518672808    
 electron-nuclear            :     -3264.27435667    
 Hartree                     :      403.097016587    
 Madelung                    :     -1863.65585114    
 xc potential                :     -92.5361151528    
 exchange                    :     -68.5792376691    
 correlation                 :     -1.63816965624    
 total energy                :     -1511.31128835    
 
Density of states at Fermi energy :    406.4296219    
 (states/Hartree/unit cell)
Estimated band gap (eV) :   0.7281806112    
 from k-point      7 to k-point      4
Estimated direct band gap (eV) :   0.7723490833    
 at k-point      7
 
Charges :
 core                        :    14.00000000    
 core leakage                :   0.2643812493E-02
 valence                     :    22.00000000    
 interstitial                :    6.492047378    
 muffin-tins
  species :    1 (Ni)
   atom    1                 :    19.51507435    
  species :    2 (O)
   atom    1                 :    9.992878269    
 total in muffin-tins        :    29.50795262    
 total charge                :    36.00000000    
 
RMS change in effective potential (target) :    2.080526016     (  0.1000000000E-05)
Absolute change in total energy (target)   :    104.0335916     (  0.1000000000E-03)
 
Time (CPU seconds) :        24.62
 
iteration time (seconds)              :         1.94
  radial setup (linen, APW, radint)   :         0.00        0.00        0.00
  total for secular equation          :         0.16
  first-variational                   :         0.15
  setup                               :         0.09
        setup H (total, MT, IT)             :         0.08        0.08        0.01
        setup O (total, MT, IT)             :         0.01        0.01        0.00
      diagonalization                       :         0.05
    second-variational                      :         0.00
      setup (total, MT, IT)                 :         0.00        0.00        0.00
      diagonalization                       :         0.00
  total for charge and magnetization        :         0.79
    k-point summation (total, MT, IT)       :         0.00        0.00        0.00
    symmetrization                          :         0.00
  potential (total, XC, Ha)                 :         0.32        0.26        0.07
  density matrix setup                      :         0.00
 
+-------------------------+
| Iteration number :   22 |
+-------------------------+
 
New smearing width :   0.1189318321E-01
 
Energies :
 Fermi                       :     0.475902460583    
 sum of eigenvalues          :     -903.638554310    
 electron kinetic            :      1593.71181008    
   core kinetic              :      1439.63073350    
   valence kinetic           :      154.081076583    
 Coulomb                     :     -3164.02524077    
 Coulomb potential           :     -2398.66182778    
 nuclear-nuclear             :     -231.518672808    
 electron-nuclear            :     -3466.35130815    
 Hartree                     :      533.844740189    
 Madelung                    :     -1964.69432688    
 xc potential                :     -98.6885366185    
 exchange                    :     -73.1186714338    
 correlation                 :     -1.72095654303    
 total energy                :     -1645.15305866    
 
Density of states at Fermi energy :    45.16919333    
 (states/Hartree/unit cell)
Estimated band gap (eV) :   0.4348647942    
 from k-point      6 to k-point      6
Estimated direct band gap (eV) :   0.4348647942    
 at k-point      6
 
Charges :
 core                        :    14.00000000    
 core leakage                :   0.2244764610E-02
 valence                     :    22.00000000    
 interstitial                :    4.078153736    
 muffin-tins
  species :    1 (Ni)
   atom    1                 :    27.92389160    
  species :    2 (O)
   atom    1                 :    3.997954663    
 total in muffin-tins        :    31.92184626    
 total charge                :    36.00000000    
 
Wrote STATE.OUT
 
RMS change in effective potential (target) :   0.9799963882     (  0.1000000000E-05)
Absolute change in total energy (target)   :    133.8417703     (  0.1000000000E-03)
 
Time (CPU seconds) :        25.61
 
iteration time (seconds)              :         1.74
  radial setup (linen, APW, radint)   :         0.00        0.00        0.00
  total for secular equation          :         0.15
  first-variational                   :         0.14
  setup                               :         0.09
        setup H (total, MT, IT)             :         0.08        0.08        0.01
        setup O (total, MT, IT)             :         0.01        0.01        0.00
      diagonalization                       :         0.05
    second-variational                      :         0.00
      setup (total, MT, IT)                 :         0.00        0.00        0.00
      diagonalization                       :         0.00
  total for charge and magnetization        :         0.60
    k-point summation (total, MT, IT)       :         0.00        0.00        0.00
    symmetrization                          :         0.00
  potential (total, XC, Ha)                 :         0.32        0.26        0.07
  density matrix setup                      :         0.00
 
+-------------------------+
| Iteration number :   23 |
+-------------------------+
 
New smearing width :   0.4116251851E-02
 
Energies :
 Fermi                       :     0.551621415985    
 sum of eigenvalues          :     -900.802579245    
 electron kinetic            :      1609.58647654    
   core kinetic              :      1439.36007685    
   valence kinetic           :      170.226399691    
 Coulomb                     :     -3151.80222279    
 Coulomb potential           :     -2413.66346041    
 nuclear-nuclear             :     -231.518672808    
 electron-nuclear            :     -3426.90363956    
 Hartree                     :      506.620089577    
 Madelung                    :     -1944.97049259    
 xc potential                :     -96.7255953766    
 exchange                    :     -71.6517528496    
 correlation                 :     -1.70687382432    
 total energy                :     -1615.57437293    
 
Density of states at Fermi energy :    740.9087006    
 (states/Hartree/unit cell)
Estimated band gap (eV) :   0.1293188655    
 from k-point      8 to k-point      7
Estimated direct band gap (eV) :   0.1293188655    
 at k-point      7
 
Charges :
 core                        :    14.00000000    
 core leakage                :   0.2435154903E-02
 valence                     :    22.00000000    
 interstitial                :    5.313504246    
 muffin-tins
  species :    1 (Ni)
   atom    1                 :    26.68855694    
  species :    2 (O)
   atom    1                 :    3.997938816    
 total in muffin-tins        :    30.68649575    
 total charge                :    36.00000000    
 
RMS change in effective potential (target) :   0.6081979926     (  0.1000000000E-05)
Absolute change in total energy (target)   :    29.57868574     (  0.1000000000E-03)
 
Time (CPU seconds) :        26.62
 
iteration time (seconds)              :         1.77
  radial setup (linen, APW, radint)   :         0.00        0.00        0.00
  total for secular equation          :         0.16
  first-variational                   :         0.15
  setup                               :         0.09
        setup H (total, MT, IT)             :         0.08        0.08        0.00
        setup O (total, MT, IT)             :         0.01        0.01        0.00
      diagonalization                       :         0.05
    second-variational                      :         0.00
      setup (total, MT, IT)                 :         0.00        0.00        0.00
      diagonalization                       :         0.00
  total for charge and magnetization        :         0.62
    k-point summation (total, MT, IT)       :         0.00        0.00        0.00
    symmetrization                          :         0.00
  potential (total, XC, Ha)                 :         0.32        0.26        0.07
  density matrix setup                      :         0.00
 
+-------------------------+
| Iteration number :   24 |
+-------------------------+
 
New smearing width :   0.8842040724E-02
 
Energies :
 Fermi                       :     0.639190558047    
 sum of eigenvalues          :     -899.207070105    
 electron kinetic            :      1651.47327620    
   core kinetic              :      1443.38323670    
   valence kinetic           :      208.090039500    
 Coulomb                     :     -3092.68293460    
 Coulomb potential           :     -2458.14491740    
 nuclear-nuclear             :     -231.518672808    
 electron-nuclear            :     -3264.18360618    
 Hartree                     :      403.019344392    
 Madelung                    :     -1863.61047590    
 xc potential                :     -92.5354289085    
 exchange                    :     -68.5786903085    
 correlation                 :     -1.63816946887    
 total energy                :     -1511.42651817    
 
Density of states at Fermi energy :    404.7482323    
 (states/Hartree/unit cell)
Estimated band gap (eV) :   0.4463709743E-01
 from k-point      4 to k-point      7
Estimated direct band gap (eV) :   0.1525491020    
 at k-point      4
 
Charges :
 core                        :    14.00000000    
 core leakage                :   0.2639212357E-02
 valence                     :    22.00000000    
 interstitial                :    6.504247924    
 muffin-tins
  species :    1 (Ni)
   atom    1                 :    19.50287671    
  species :    2 (O)
   atom    1                 :    9.992875367    
 total in muffin-tins        :    29.49575208    
 total charge                :    36.00000000    
 
Wrote STATE.OUT
 
RMS change in effective potential (target) :    2.085926657     (  0.1000000000E-05)
Absolute change in total energy (target)   :    104.1478548     (  0.1000000000E-03)
 
Time (CPU seconds) :        27.81
 
iteration time (seconds)              :         1.94
  radial setup (linen, APW, radint)   :         0.00        0.00        0.00
  total for secular equation          :         0.16
  first-variational                   :         0.14
  setup                               :         0.09
        setup H (total, MT, IT)             :         0.08        0.08        0.00
        setup O (total, MT, IT)             :         0.01        0.01        0.00
      diagonalization                       :         0.05
    second-variational                      :         0.00
      setup (total, MT, IT)                 :         0.00        0.00        0.00
      diagonalization                       :         0.00
  total for charge and magnetization        :         0.79
    k-point summation (total, MT, IT)       :         0.00        0.00        0.00
    symmetrization                          :         0.00
  potential (total, XC, Ha)                 :         0.32        0.26        0.07
  density matrix setup                      :         0.00
 
+-------------------------+
| Iteration number :   25 |
+-------------------------+
 
New smearing width :   0.1190359788E-01
 
Energies :
 Fermi                       :     0.475973171739    
 sum of eigenvalues          :     -903.755294113    
 electron kinetic            :      1593.64889826    
   core kinetic              :      1439.67137681    
   valence kinetic           :      153.977521449    
 Coulomb                     :     -3164.18682231    
 Coulomb potential           :     -2398.70505132    
 nuclear-nuclear             :     -231.518672808    
 electron-nuclear            :     -3466.63124769    
 Hartree                     :      533.963098187    
 Madelung                    :     -1964.83429665    
 xc potential                :     -98.6991410573    
 exchange                    :     -73.1265792006    
 correlation                 :     -1.72096957539    
 total energy                :     -1645.38547283    
 
Density of states at Fermi energy :    45.62421979    
 (states/Hartree/unit cell)
Estimated band gap (eV) :   0.4353201765    
 from k-point      6 to k-point      6
Estimated direct band gap (eV) :   0.4353201765    
 at k-point      6
 
Charges :
 core                        :    14.00000000    
 core leakage                :   0.2240446242E-02
 valence                     :    22.00000000    
 interstitial                :    4.080051347    
 muffin-tins
  species :    1 (Ni)
   atom    1                 :    27.92199465    
  species :    2 (O)
   atom    1                 :    3.997954004    
 total in muffin-tins        :    31.91994865    
 total charge                :    36.00000000    
 
RMS change in effective potential (target) :   0.9773252583     (  0.1000000000E-05)
Absolute change in total energy (target)   :    133.9589547     (  0.1000000000E-03)
 
Time (CPU seconds) :        28.80
 
iteration time (seconds)              :         1.74
  radial setup (linen, APW, radint)   :         0.00        0.00        0.00
  total for secular equation          :         0.15
  first-variational                   :         0.14
  setup                               :         0.09
        setup H (total, MT, IT)             :         0.08        0.08        0.00
        setup O (total, MT, IT)             :         0.01        0.01        0.00
      diagonalization                       :         0.05
    second-variational                      :         0.00
      setup (total, MT, IT)                 :         0.00        0.00        0.00
      diagonalization                       :         0.00
  total for charge and magnetization        :         0.60
    k-point summation (total, MT, IT)       :         0.00        0.00        0.00
    symmetrization                          :         0.00
  potential (total, XC, Ha)                 :         0.32        0.26        0.07
  density matrix setup                      :         0.00
 
+-------------------------+
| Iteration number :   26 |
+-------------------------+
 
New smearing width :   0.4124437594E-02
 
Energies :
 Fermi                       :     0.551881080106    
 sum of eigenvalues          :     -900.907603354    
 electron kinetic            :      1609.54327114    
   core kinetic              :      1439.39033297    
   valence kinetic           :      170.152938172    
 Coulomb                     :     -3151.93737479    
 Coulomb potential           :     -2413.71728837    
 nuclear-nuclear             :     -231.518672808    
 electron-nuclear            :     -3427.12011560    
 Hartree                     :      506.701413614    
 Madelung                    :     -1945.07873061    
 xc potential                :     -96.7335861221    
 exchange                    :     -71.6576870870    
 correlation                 :     -1.70687938044    
 total energy                :     -1615.75867012    
 
Density of states at Fermi energy :    740.8326754    
 (states/Hartree/unit cell)
Estimated band gap (eV) :   0.1238928598    
 from k-point      7 to k-point      7
Estimated direct band gap (eV) :   0.1238928598    
 at k-point      7
 
Charges :
 core                        :    14.00000000    
 core leakage                :   0.2431001890E-02
 valence                     :    22.00000000    
 interstitial                :    5.315904994    
 muffin-tins
  species :    1 (Ni)
   atom    1                 :    26.68615681    
  species :    2 (O)
   atom    1                 :    3.997938193    
 total in muffin-tins        :    30.68409501    
 total charge                :    36.00000000    
 
Wrote STATE.OUT
 
RMS change in effective potential (target) :   0.6019885927     (  0.1000000000E-05)
Absolute change in total energy (target)   :    29.62680270     (  0.1000000000E-03)
 
Time (CPU seconds) :        29.80
 
iteration time (seconds)              :         1.76
  radial setup (linen, APW, radint)   :         0.00        0.00        0.00
  total for secular equation          :         0.15
  first-variational                   :         0.14
  setup                               :         0.09
[...]
  density matrix setup                      :         0.00
 
+-------------------------+
| Iteration number :   94 |
+-------------------------+
 
New smearing width :   0.1181044176E-01
 
Energies :
 Fermi                       :     0.474794297222    
 sum of eigenvalues          :     -904.094818498    
 electron kinetic            :      1593.30523389    
   core kinetic              :      1439.75304579    
   valence kinetic           :      153.552188097    
 Coulomb                     :     -3164.70060204    
 Coulomb potential           :     -2398.65492125    
 nuclear-nuclear             :     -231.518672808    
 electron-nuclear            :     -3467.70893721    
 Hartree                     :      534.527007979    
 Madelung                    :     -1965.37314141    
 xc potential                :     -98.7451311366    
 exchange                    :     -73.1608634316    
 correlation                 :     -1.72116630013    
 total energy                :     -1646.27739788    
 
Density of states at Fermi energy :    44.49520693    
 (states/Hartree/unit cell)
Estimated band gap (eV) :   0.4363356621    
 from k-point      6 to k-point      6
Estimated direct band gap (eV) :   0.4363356621    
 at k-point      6
 
Charges :
 core                        :    14.00000000    
 core leakage                :   0.2225220420E-02
 valence                     :    22.00000000    
 interstitial                :    4.074793934    
 muffin-tins
  species :    1 (Ni)
   atom    1                 :    27.92725414    
  species :    2 (O)
   atom    1                 :    3.997951931    
 total in muffin-tins        :    31.92520607    
 total charge                :    36.00000000    
 
Wrote STATE.OUT
 
RMS change in effective potential (target) :   0.9731143668     (  0.1000000000E-05)
Absolute change in total energy (target)   :    132.5406701     (  0.1000000000E-03)
 
Time (CPU seconds) :       104.61
 
iteration time (seconds)              :         1.73
  radial setup (linen, APW, radint)   :         0.00        0.00        0.00
  total for secular equation          :         0.15
  first-variational                   :         0.14
  setup                               :         0.09
        setup H (total, MT, IT)             :         0.08        0.08        0.00
        setup O (total, MT, IT)             :         0.01        0.01        0.00
      diagonalization                       :         0.05
    second-variational                      :         0.00
      setup (total, MT, IT)                 :         0.00        0.00        0.00
      diagonalization                       :         0.00
  total for charge and magnetization        :         0.60
    k-point summation (total, MT, IT)       :         0.00        0.00        0.00
    symmetrization                          :         0.00
  potential (total, XC, Ha)                 :         0.32        0.25        0.07
  density matrix setup                      :         0.00
 
+-------------------------+
| Iteration number :   95 |
+-------------------------+
 
New smearing width :   0.4098881685E-02
 
Energies :
 Fermi                       :     0.551386887790    
 sum of eigenvalues          :     -901.201619555    
 electron kinetic            :      1609.47520264    
   core kinetic              :      1439.45444154    
   valence kinetic           :      170.020761105    
 Coulomb                     :     -3152.29341684    
 Coulomb potential           :     -2413.92342424    
 nuclear-nuclear             :     -231.518672808    
 electron-nuclear            :     -3427.62606382    
 Hartree                     :      506.851319790    
 Madelung                    :     -1945.33170472    
 xc potential                :     -96.7533979535    
 exchange                    :     -71.6724536418    
 correlation                 :     -1.70674388698    
 total energy                :     -1616.19741173    
 
Density of states at Fermi energy :    758.8251700    
 (states/Hartree/unit cell)
Estimated band gap (eV) :   0.1139683009    
 from k-point      2 to k-point      7
Estimated direct band gap (eV) :   0.1139683009    
 at k-point      7
 
Charges :
 core                        :    14.00000000    
 core leakage                :   0.2416874164E-02
 valence                     :    22.00000000    
 interstitial                :    5.319701872    
 muffin-tins
  species :    1 (Ni)
   atom    1                 :    26.67493629    
  species :    2 (O)
   atom    1                 :    4.005361836    
 total in muffin-tins        :    30.68029813    
 total charge                :    36.00000000    
 
RMS change in effective potential (target) :   0.5808753647     (  0.1000000000E-05)
Absolute change in total energy (target)   :    30.07998615     (  0.1000000000E-03)
 
Time (CPU seconds) :       105.75
 
iteration time (seconds)              :         1.89
  radial setup (linen, APW, radint)   :         0.00        0.00        0.00
  total for secular equation          :         0.15
  first-variational                   :         0.14
  setup                               :         0.09
        setup H (total, MT, IT)             :         0.08        0.08        0.00
        setup O (total, MT, IT)             :         0.01        0.01        0.00
      diagonalization                       :         0.05
    second-variational                      :         0.00
      setup (total, MT, IT)                 :         0.00        0.00        0.00
      diagonalization                       :         0.00
  total for charge and magnetization        :         0.76
    k-point summation (total, MT, IT)       :         0.00        0.00        0.00
    symmetrization                          :         0.00
  potential (total, XC, Ha)                 :         0.32        0.25        0.06
  density matrix setup                      :         0.00
 
+-------------------------+
| Iteration number :   96 |
+-------------------------+
 
New smearing width :   0.8866462350E-02
 
Energies :
 Fermi                       :     0.639191828252    
 sum of eigenvalues          :     -899.759096665    
 electron kinetic            :      1651.08050132    
   core kinetic              :      1443.49223983    
   valence kinetic           :      207.588261494    
 Coulomb                     :     -3092.79523578    
 Coulomb potential           :     -2458.29289398    
 nuclear-nuclear             :     -231.518672808    
 electron-nuclear            :     -3264.26023196    
 Hartree                     :      402.983668986    
 Madelung                    :     -1863.64878879    
 xc potential                :     -92.5467040009    
 exchange                    :     -68.5870523906    
 correlation                 :     -1.63818492329    
 total energy                :     -1511.93997177    
 
Density of states at Fermi energy :    401.9049475    
 (states/Hartree/unit cell)
Estimated band gap (eV) :   0.4722293848E-01
 from k-point      4 to k-point      7
Estimated direct band gap (eV) :   0.1524118434    
 at k-point      4
 
Charges :
 core                        :    14.00000000    
 core leakage                :   0.2622304672E-02
 valence                     :    22.00000000    
 interstitial                :    6.525661210    
 muffin-tins
  species :    1 (Ni)
   atom    1                 :    19.48147201    
  species :    2 (O)
   atom    1                 :    9.992866784    
 total in muffin-tins        :    29.47433879    
 total charge                :    36.00000000    
 
Wrote STATE.OUT
 
RMS change in effective potential (target) :    2.099906313     (  0.1000000000E-05)
Absolute change in total energy (target)   :    104.2574400     (  0.1000000000E-03)
 
Time (CPU seconds) :       106.93
 
iteration time (seconds)              :         1.93
  radial setup (linen, APW, radint)   :         0.00        0.00        0.00
  total for secular equation          :         0.15
  first-variational                   :         0.14
  setup                               :         0.09
        setup H (total, MT, IT)             :         0.08        0.08        0.00
        setup O (total, MT, IT)             :         0.01        0.01        0.00
      diagonalization                       :         0.05
    second-variational                      :         0.00
      setup (total, MT, IT)                 :         0.00        0.00        0.00
      diagonalization                       :         0.00
  total for charge and magnetization        :         0.79
    k-point summation (total, MT, IT)       :         0.00        0.00        0.00
    symmetrization                          :         0.00
  potential (total, XC, Ha)                 :         0.32        0.26        0.07
  density matrix setup                      :         0.00
 
+-------------------------+
| Iteration number :   97 |
+-------------------------+
 
New smearing width :   0.1192072194E-01
 
Energies :
 Fermi                       :     0.475419069771    
 sum of eigenvalues          :     -904.084352092    
 electron kinetic            :      1593.39454481    
   core kinetic              :      1439.75661947    
   valence kinetic           :      153.637925341    
 Coulomb                     :     -3164.64488183    
 Coulomb potential           :     -2398.74405955    
 nuclear-nuclear             :     -231.518672808    
 electron-nuclear            :     -3467.50835849    
 Hartree                     :      534.382149471    
 Madelung                    :     -1965.27285205    
 xc potential                :     -98.7348373568    
 exchange                    :     -73.1531753641    
 correlation                 :     -1.72108131124    
 total energy                :     -1646.12459369    
 
Density of states at Fermi energy :    45.88714488    
 (states/Hartree/unit cell)
Estimated band gap (eV) :   0.4365371325    
 from k-point      6 to k-point      6
Estimated direct band gap (eV) :   0.4365371325    
 at k-point      6
 
Charges :
 core                        :    14.00000000    
 core leakage                :   0.2225982443E-02
 valence                     :    22.00000000    
 interstitial                :    4.081354254    
 muffin-tins
  species :    1 (Ni)
   atom    1                 :    27.92069398    
  species :    2 (O)
   atom    1                 :    3.997951769    
 total in muffin-tins        :    31.91864575    
 total charge                :    36.00000000    
 
RMS change in effective potential (target) :   0.9705319893     (  0.1000000000E-05)
Absolute change in total energy (target)   :    134.1846219     (  0.1000000000E-03)
 
Time (CPU seconds) :       107.92
 
iteration time (seconds)              :         1.73
  radial setup (linen, APW, radint)   :         0.00        0.00        0.00
  total for secular equation          :         0.15
  first-variational                   :         0.14
  setup                               :         0.09
        setup H (total, MT, IT)             :         0.08        0.08        0.00
        setup O (total, MT, IT)             :         0.01        0.01        0.00
      diagonalization                       :         0.05
    second-variational                      :         0.00
      setup (total, MT, IT)                 :         0.00        0.00        0.00
      diagonalization                       :         0.00
  total for charge and magnetization        :         0.60
    k-point summation (total, MT, IT)       :         0.00        0.00        0.00
    symmetrization                          :         0.00
  potential (total, XC, Ha)                 :         0.32        0.25        0.07
  density matrix setup                      :         0.00
 
+-------------------------+
| Iteration number :   98 |
+-------------------------+
 
New smearing width :   0.4127315621E-02
 
Energies :
 Fermi                       :     0.551740020549    
 sum of eigenvalues          :     -901.198127934    
 electron kinetic            :      1610.94487705    
   core kinetic              :      1439.55232164    
   valence kinetic           :      171.392555407    
 Coulomb                     :     -3152.01565012    
 Coulomb potential           :     -2415.47199754    
 nuclear-nuclear             :     -231.518672808    
 electron-nuclear            :     -3425.52195709    
 Hartree                     :      505.024979776    
 Madelung                    :     -1944.27965135    
 xc potential                :     -96.6710074431    
 exchange                    :     -71.6114857277    
 correlation                 :     -1.70405798404    
 total energy                :     -1614.38631679    
 
Density of states at Fermi energy :    871.5481323    
 (states/Hartree/unit cell)
Estimated band gap (eV) :   0.1111904118    
 from k-point      3 to k-point      7
Estimated direct band gap (eV) :   0.1111904118    
 at k-point      7
 
Charges :
 core                        :    14.00000000    
 core leakage                :   0.2417190490E-02
 valence                     :    22.00000000    
 interstitial                :    5.319812071    
 muffin-tins
  species :    1 (Ni)
   atom    1                 :    26.57649272    
  species :    2 (O)
   atom    1                 :    4.103695212    
 total in muffin-tins        :    30.68018793    
 total charge                :    36.00000000    
 
Wrote STATE.OUT
 
RMS change in effective potential (target) :   0.5419920252     (  0.1000000000E-05)
Absolute change in total energy (target)   :    31.73827690     (  0.1000000000E-03)
 
Time (CPU seconds) :       109.06
 
iteration time (seconds)              :         1.89
  radial setup (linen, APW, radint)   :         0.00        0.00        0.00
  total for secular equation          :         0.15
  first-variational                   :         0.14
  setup                               :         0.09
        setup H (total, MT, IT)             :         0.08        0.08        0.00
        setup O (total, MT, IT)             :         0.01        0.01        0.00
      diagonalization                       :         0.05
    second-variational                      :         0.00
      setup (total, MT, IT)                 :         0.00        0.00        0.00
      diagonalization                       :         0.00
  total for charge and magnetization        :         0.76
    k-point summation (total, MT, IT)       :         0.00        0.00        0.00
    symmetrization                          :         0.00
  potential (total, XC, Ha)                 :         0.32        0.25        0.07
  density matrix setup                      :         0.00
 
+-------------------------+
| Iteration number :   99 |
+-------------------------+
 
New smearing width :   0.8858179262E-02
 
Energies :
 Fermi                       :     0.633484288205    
 sum of eigenvalues          :     -899.865390755    
 electron kinetic            :      1651.03782033    
   core kinetic              :      1443.43156762    
   valence kinetic           :      207.606252714    
 Coulomb                     :     -3094.86809328    
 Coulomb potential           :     -2458.19489642    
 nuclear-nuclear             :     -231.518672808    
 electron-nuclear            :     -3268.50394453    
 Hartree                     :      405.154524056    
 Madelung                    :     -1865.77064507    
 xc potential                :     -92.7083146675    
 exchange                    :     -68.7082850911    
 correlation                 :     -1.63807032619    
 total energy                :     -1514.17662837    
 
Density of states at Fermi energy :    407.7629347    
 (states/Hartree/unit cell)
Estimated band gap (eV) :   0.7333320325    
 from k-point      7 to k-point      4
Estimated direct band gap (eV) :   0.7459813164    
 at k-point      7
 
Charges :
 core                        :    14.00000000    
 core leakage                :   0.2608163929E-02
 valence                     :    22.00000000    
 interstitial                :    6.376622215    
 muffin-tins
  species :    1 (Ni)
   atom    1                 :    19.63050828    
  species :    2 (O)
   atom    1                 :    9.992869506    
 total in muffin-tins        :    29.62337779    
 total charge                :    36.00000000    
 
RMS change in effective potential (target) :    2.059906265     (  0.1000000000E-05)
Absolute change in total energy (target)   :    100.2096884     (  0.1000000000E-03)
 
Time (CPU seconds) :       110.24
 
iteration time (seconds)              :         1.92
  radial setup (linen, APW, radint)   :         0.00        0.00        0.00
  total for secular equation          :         0.15
  first-variational                   :         0.14
  setup                               :         0.09
        setup H (total, MT, IT)             :         0.08        0.08        0.01
        setup O (total, MT, IT)             :         0.01        0.01        0.00
      diagonalization                       :         0.05
    second-variational                      :         0.00
      setup (total, MT, IT)                 :         0.00        0.00        0.00
      diagonalization                       :         0.00
  total for charge and magnetization        :         0.79
    k-point summation (total, MT, IT)       :         0.00        0.00        0.00
    symmetrization                          :         0.00
  potential (total, XC, Ha)                 :         0.32        0.25        0.07
  density matrix setup                      :         0.00
 
+-------------------------+
| Iteration number :  100 |
+-------------------------+
 
Reached self-consistent loops maximum
 
New smearing width :   0.1178320099E-01
 
Energies :
 Fermi                       :     0.474375266523    
 sum of eigenvalues          :     -904.114187532    
 electron kinetic            :      1593.18298775    
   core kinetic              :      1439.74938975    
   valence kinetic           :      153.433598005    
 Coulomb                     :     -3164.78177086    
 Coulomb potential           :     -2398.53773108    
 nuclear-nuclear             :     -231.518672808    
 electron-nuclear            :     -3467.98846502    
 Hartree                     :      534.725366967    
 Madelung                    :     -1965.51290532    
 xc potential                :     -98.7594442008    
 exchange                    :     -73.1715523617    
 correlation                 :     -1.72127881572    
 total energy                :     -1646.49161428    
 
Density of states at Fermi energy :    42.18757867    
 (states/Hartree/unit cell)
Estimated band gap (eV) :   0.4363870285    
 from k-point      6 to k-point      6
Estimated direct band gap (eV) :   0.4363870285    
 at k-point      6
 
Charges :
 core                        :    14.00000000    
 core leakage                :   0.2223950895E-02
 valence                     :    22.00000000    
 interstitial                :    4.066045675    
 muffin-tins
  species :    1 (Ni)
   atom    1                 :    27.93600226    
  species :    2 (O)
   atom    1                 :    3.997952060    
 total in muffin-tins        :    31.93395432    
 total charge                :    36.00000000    
 
Wrote STATE.OUT
 
+------------------------------+
| Self-consistent loop stopped |
+------------------------------+
 
Wrote STATE.OUT
 
Timings (CPU seconds) :
 initialisation                        :         2.16
 Hamiltonian and overlap matrix set up :         9.42
 first-variational secular equation    :         5.00
 charge density calculation            :        61.92
 potential calculation                 :        32.73
 total                                 :       111.23
 
+-----------------------------+
| Elk version 1.0.017 stopped |
+-----------------------------+
